<?xml version="1.0" encoding="UTF-8"?>

<!-- generated on 11/04/20 22:01:12 by Eclipse SUMO Version 1.6.0
<configuration xmlns:xsi="http://www.w3.org/2001/XMLSchema-instance" xsi:noNamespaceSchemaLocation="http://sumo.dlr.de/xsd/sumoConfiguration.xsd">

    <input>
        <net-file value="C:\Users\Konrad\Desktop\Programy_Aplikacje\RLT\gym_env\envs\cfg_2\Intersection.net.xml"/>
        <route-files value="C:\Users\Konrad\Desktop\Programy_Aplikacje\RLT\gym_env\envs\cfg_2\Intersection.rou.xml"/>
        <additional-files value="C:\Users\Konrad\Desktop\Programy_Aplikacje\RLT\gym_env\envs\cfg_2\Intersection.add.xml"/>
    </input>

    <output>
        <tripinfo-output value="C:\Users\Konrad\Desktop\Programy_Aplikacje\RLT\gym_env\envs\cfg_2\tripinfo.xml"/>
    </output>

    <processing>
        <tls.actuated.show-detectors value="true"/>
    </processing>

    <traci_server>
        <remote-port value="51597"/>
    </traci_server>

    <gui_only>
        <quit-on-end value="true"/>
    </gui_only>

</configuration>
-->

<tripinfos xmlns:xsi="http://www.w3.org/2001/XMLSchema-instance" xsi:noNamespaceSchemaLocation="http://sumo.dlr.de/xsd/tripinfo_file.xsd">
    <tripinfo id="right_3" depart="0.00" departLane="N_0_0" departPos="4.10" departSpeed="0.00" departDelay="0.00" arrival="32.00" arrivalLane="0_S_0" arrivalPos="192.80" arrivalSpeed="14.13" duration="32.00" routeLength="395.90" waitingTime="0.00" waitingCount="0" stopTime="0.00" timeLoss="4.74" rerouteNo="0" devices="tripinfo_right_3" vType="Car" speedFactor="1.08" vaporized=""/>
    <tripinfo id="right_2" depart="0.00" departLane="S_0_0" departPos="4.10" departSpeed="0.00" departDelay="0.00" arrival="33.00" arrivalLane="0_N_0" arrivalPos="192.80" arrivalSpeed="13.71" duration="33.00" routeLength="395.90" waitingTime="0.00" waitingCount="0" stopTime="0.00" timeLoss="3.94" rerouteNo="0" devices="tripinfo_right_2" vType="Car" speedFactor="1.01" vaporized=""/>
    <tripinfo id="right_4" depart="0.00" departLane="S2_1_0" departPos="4.10" departSpeed="0.00" departDelay="0.00" arrival="39.00" arrivalLane="1_N2_0" arrivalPos="192.80" arrivalSpeed="13.52" duration="39.00" routeLength="395.90" waitingTime="2.00" waitingCount="1" stopTime="0.00" timeLoss="11.03" rerouteNo="0" devices="tripinfo_right_4" vType="Car" speedFactor="1.03" vaporized=""/>
    <tripinfo id="right_5" depart="0.00" departLane="N2_1_0" departPos="4.10" departSpeed="0.00" departDelay="0.00" arrival="42.00" arrivalLane="1_S2_0" arrivalPos="192.80" arrivalSpeed="11.35" duration="42.00" routeLength="395.90" waitingTime="0.00" waitingCount="0" stopTime="0.00" timeLoss="7.22" rerouteNo="0" devices="tripinfo_right_5" vType="Car" speedFactor="0.83" vaporized=""/>
    <tripinfo id="right_10" depart="3.00" departLane="S2_1_0" departPos="4.10" departSpeed="0.00" departDelay="2.00" arrival="50.00" arrivalLane="1_N2_0" arrivalPos="192.80" arrivalSpeed="14.24" duration="47.00" routeLength="395.90" waitingTime="8.00" waitingCount="1" stopTime="0.00" timeLoss="20.19" rerouteNo="0" devices="tripinfo_right_10" vType="Car" speedFactor="1.09" vaporized=""/>
    <tripinfo id="right_11" depart="3.00" departLane="N2_1_0" departPos="4.10" departSpeed="0.00" departDelay="2.00" arrival="51.00" arrivalLane="1_S2_0" arrivalPos="192.80" arrivalSpeed="13.99" duration="48.00" routeLength="395.90" waitingTime="6.00" waitingCount="1" stopTime="0.00" timeLoss="19.53" rerouteNo="0" devices="tripinfo_right_11" vType="Car" speedFactor="1.03" vaporized=""/>
    <tripinfo id="right_0" depart="0.00" departLane="W_0_0" departPos="4.10" departSpeed="0.00" departDelay="0.00" arrival="54.00" arrivalLane="1_E2_0" arrivalPos="192.80" arrivalSpeed="14.05" duration="54.00" routeLength="595.90" waitingTime="1.00" waitingCount="1" stopTime="0.00" timeLoss="13.21" rerouteNo="0" devices="tripinfo_right_0" vType="Car" speedFactor="1.06" vaporized=""/>
    <tripinfo id="right_8" depart="3.00" departLane="S_0_0" departPos="4.10" departSpeed="0.00" departDelay="2.00" arrival="54.00" arrivalLane="0_N_0" arrivalPos="192.80" arrivalSpeed="12.70" duration="51.00" routeLength="395.90" waitingTime="13.00" waitingCount="1" stopTime="0.00" timeLoss="20.54" rerouteNo="0" devices="tripinfo_right_8" vType="Car" speedFactor="0.94" vaporized=""/>
    <tripinfo id="right_9" depart="3.00" departLane="N_0_0" departPos="4.10" departSpeed="0.00" departDelay="2.00" arrival="56.00" arrivalLane="0_S_0" arrivalPos="192.80" arrivalSpeed="11.34" duration="53.00" routeLength="395.90" waitingTime="11.00" waitingCount="1" stopTime="0.00" timeLoss="19.23" rerouteNo="0" devices="tripinfo_right_9" vType="Car" speedFactor="0.86" vaporized=""/>
    <tripinfo id="right_1" depart="0.00" departLane="E2_1_0" departPos="4.10" departSpeed="0.00" departDelay="0.00" arrival="61.00" arrivalLane="0_W_0" arrivalPos="192.80" arrivalSpeed="12.10" duration="61.00" routeLength="595.90" waitingTime="7.00" waitingCount="1" stopTime="0.00" timeLoss="15.16" rerouteNo="0" devices="tripinfo_right_1" vType="Car" speedFactor="0.94" vaporized=""/>
    <tripinfo id="right_17" depart="6.00" departLane="N2_1_0" departPos="4.10" departSpeed="0.00" departDelay="4.00" arrival="66.00" arrivalLane="1_S2_0" arrivalPos="192.80" arrivalSpeed="12.84" duration="60.00" routeLength="395.90" waitingTime="14.00" waitingCount="2" stopTime="0.00" timeLoss="29.65" rerouteNo="0" devices="tripinfo_right_17" vType="Car" speedFactor="0.94" vaporized=""/>
    <tripinfo id="right_14" depart="5.00" departLane="S_0_0" departPos="4.10" departSpeed="0.00" departDelay="3.00" arrival="67.00" arrivalLane="0_N_0" arrivalPos="192.80" arrivalSpeed="13.15" duration="62.00" routeLength="395.90" waitingTime="21.00" waitingCount="2" stopTime="0.00" timeLoss="32.51" rerouteNo="0" devices="tripinfo_right_14" vType="Car" speedFactor="0.99" vaporized=""/>
    <tripinfo id="right_15" depart="6.00" departLane="N_0_0" departPos="4.10" departSpeed="0.00" departDelay="4.00" arrival="68.00" arrivalLane="0_S_0" arrivalPos="192.80" arrivalSpeed="12.77" duration="62.00" routeLength="395.90" waitingTime="19.00" waitingCount="2" stopTime="0.00" timeLoss="30.82" rerouteNo="0" devices="tripinfo_right_15" vType="Car" speedFactor="0.93" vaporized=""/>
    <tripinfo id="right_16" depart="6.00" departLane="S2_1_0" departPos="4.10" departSpeed="0.00" departDelay="4.00" arrival="68.00" arrivalLane="1_N2_0" arrivalPos="192.80" arrivalSpeed="12.00" duration="62.00" routeLength="395.90" waitingTime="17.00" waitingCount="2" stopTime="0.00" timeLoss="29.13" rerouteNo="0" devices="tripinfo_right_16" vType="Car" speedFactor="0.88" vaporized=""/>
    <tripinfo id="right_20" depart="8.00" departLane="S_0_0" departPos="4.10" departSpeed="0.00" departDelay="5.00" arrival="69.00" arrivalLane="0_N_0" arrivalPos="192.80" arrivalSpeed="13.66" duration="61.00" routeLength="395.90" waitingTime="18.00" waitingCount="2" stopTime="0.00" timeLoss="32.26" rerouteNo="0" devices="tripinfo_right_20" vType="Car" speedFactor="1.02" vaporized=""/>
    <tripinfo id="right_21" depart="9.00" departLane="N_0_0" departPos="4.10" departSpeed="0.00" departDelay="6.00" arrival="70.00" arrivalLane="0_S_0" arrivalPos="192.80" arrivalSpeed="13.73" duration="61.00" routeLength="395.90" waitingTime="15.00" waitingCount="2" stopTime="0.00" timeLoss="31.91" rerouteNo="0" devices="tripinfo_right_21" vType="Car" speedFactor="1.01" vaporized=""/>
    <tripinfo id="right_6" depart="3.00" departLane="W_0_0" departPos="4.10" departSpeed="0.00" departDelay="2.00" arrival="73.00" arrivalLane="1_E2_0" arrivalPos="192.80" arrivalSpeed="13.56" duration="70.00" routeLength="595.90" waitingTime="17.00" waitingCount="2" stopTime="0.00" timeLoss="28.91" rerouteNo="0" devices="tripinfo_right_6" vType="Car" speedFactor="1.05" vaporized=""/>
    <tripinfo id="right_7" depart="2.00" departLane="E2_1_0" departPos="4.10" departSpeed="0.00" departDelay="1.00" arrival="75.00" arrivalLane="0_W_0" arrivalPos="192.80" arrivalSpeed="11.52" duration="73.00" routeLength="595.90" waitingTime="12.00" waitingCount="2" stopTime="0.00" timeLoss="24.39" rerouteNo="0" devices="tripinfo_right_7" vType="Car" speedFactor="0.89" vaporized=""/>
    <tripinfo id="right_13" depart="5.00" departLane="E2_1_0" departPos="4.10" departSpeed="0.00" departDelay="3.00" arrival="77.00" arrivalLane="0_W_0" arrivalPos="192.80" arrivalSpeed="15.25" duration="72.00" routeLength="595.90" waitingTime="11.00" waitingCount="2" stopTime="0.00" timeLoss="33.02" rerouteNo="0" devices="tripinfo_right_13" vType="Car" speedFactor="1.12" vaporized=""/>
    <tripinfo id="right_26" depart="11.00" departLane="S_0_0" departPos="4.10" departSpeed="0.00" departDelay="7.00" arrival="93.00" arrivalLane="0_N_0" arrivalPos="192.80" arrivalSpeed="12.65" duration="82.00" routeLength="395.90" waitingTime="31.00" waitingCount="3" stopTime="0.00" timeLoss="50.33" rerouteNo="0" devices="tripinfo_right_26" vType="Car" speedFactor="0.92" vaporized=""/>
    <tripinfo id="right_27" depart="11.00" departLane="N_0_0" departPos="4.10" departSpeed="0.00" departDelay="7.00" arrival="93.00" arrivalLane="0_S_0" arrivalPos="192.80" arrivalSpeed="12.89" duration="82.00" routeLength="395.90" waitingTime="32.00" waitingCount="3" stopTime="0.00" timeLoss="51.12" rerouteNo="0" devices="tripinfo_right_27" vType="Car" speedFactor="0.95" vaporized=""/>
    <tripinfo id="right_32" depart="14.00" departLane="S_0_0" departPos="4.10" departSpeed="0.00" departDelay="9.00" arrival="94.00" arrivalLane="0_N_0" arrivalPos="192.80" arrivalSpeed="13.90" duration="80.00" routeLength="395.90" waitingTime="32.00" waitingCount="3" stopTime="0.00" timeLoss="51.56" rerouteNo="0" devices="tripinfo_right_32" vType="Car" speedFactor="1.01" vaporized=""/>
    <tripinfo id="right_33" depart="14.00" departLane="N_0_0" departPos="4.10" departSpeed="0.00" departDelay="9.00" arrival="94.00" arrivalLane="0_S_0" arrivalPos="192.80" arrivalSpeed="14.48" duration="80.00" routeLength="395.90" waitingTime="30.00" waitingCount="3" stopTime="0.00" timeLoss="55.44" rerouteNo="0" devices="tripinfo_right_33" vType="Car" speedFactor="1.17" vaporized=""/>
    <tripinfo id="right_22" depart="9.00" departLane="S2_1_0" departPos="4.10" departSpeed="0.00" departDelay="6.00" arrival="95.00" arrivalLane="1_N2_0" arrivalPos="192.80" arrivalSpeed="12.89" duration="86.00" routeLength="395.90" waitingTime="38.00" waitingCount="3" stopTime="0.00" timeLoss="56.19" rerouteNo="0" devices="tripinfo_right_22" vType="Car" speedFactor="0.98" vaporized=""/>
    <tripinfo id="right_23" depart="8.00" departLane="N2_1_0" departPos="4.10" departSpeed="0.00" departDelay="5.00" arrival="96.00" arrivalLane="1_S2_0" arrivalPos="192.80" arrivalSpeed="11.64" duration="88.00" routeLength="395.90" waitingTime="37.00" waitingCount="3" stopTime="0.00" timeLoss="55.56" rerouteNo="0" devices="tripinfo_right_23" vType="Car" speedFactor="0.89" vaporized=""/>
    <tripinfo id="right_28" depart="12.00" departLane="S2_1_0" departPos="4.10" departSpeed="0.00" departDelay="8.00" arrival="96.00" arrivalLane="1_N2_0" arrivalPos="192.80" arrivalSpeed="14.84" duration="84.00" routeLength="395.90" waitingTime="38.00" waitingCount="3" stopTime="0.00" timeLoss="58.68" rerouteNo="0" devices="tripinfo_right_28" vType="Car" speedFactor="1.13" vaporized=""/>
    <tripinfo id="right_38" depart="16.00" departLane="S_0_0" departPos="4.10" departSpeed="0.00" departDelay="10.00" arrival="96.00" arrivalLane="0_N_0" arrivalPos="192.80" arrivalSpeed="14.70" duration="80.00" routeLength="395.90" waitingTime="28.00" waitingCount="3" stopTime="0.00" timeLoss="53.67" rerouteNo="0" devices="tripinfo_right_38" vType="Car" speedFactor="1.10" vaporized=""/>
    <tripinfo id="right_39" depart="17.00" departLane="N_0_0" departPos="4.10" departSpeed="0.00" departDelay="11.00" arrival="97.00" arrivalLane="0_S_0" arrivalPos="192.80" arrivalSpeed="11.61" duration="80.00" routeLength="395.90" waitingTime="26.00" waitingCount="3" stopTime="0.00" timeLoss="48.30" rerouteNo="0" devices="tripinfo_right_39" vType="Car" speedFactor="0.90" vaporized=""/>
    <tripinfo id="right_29" depart="11.00" departLane="N2_1_0" departPos="4.10" departSpeed="0.00" departDelay="7.00" arrival="98.00" arrivalLane="1_S2_0" arrivalPos="192.80" arrivalSpeed="12.28" duration="87.00" routeLength="395.90" waitingTime="34.00" waitingCount="3" stopTime="0.00" timeLoss="55.68" rerouteNo="0" devices="tripinfo_right_29" vType="Car" speedFactor="0.93" vaporized=""/>
    <tripinfo id="right_34" depart="15.00" departLane="S2_1_0" departPos="4.10" departSpeed="0.00" departDelay="10.00" arrival="98.00" arrivalLane="1_N2_0" arrivalPos="192.80" arrivalSpeed="13.30" duration="83.00" routeLength="395.90" waitingTime="34.00" waitingCount="3" stopTime="0.00" timeLoss="53.98" rerouteNo="0" devices="tripinfo_right_34" vType="Car" speedFactor="0.99" vaporized=""/>
    <tripinfo id="right_35" depart="14.00" departLane="N2_1_0" departPos="4.10" departSpeed="0.00" departDelay="9.00" arrival="99.00" arrivalLane="1_S2_0" arrivalPos="192.80" arrivalSpeed="13.15" duration="85.00" routeLength="395.90" waitingTime="33.00" waitingCount="3" stopTime="0.00" timeLoss="56.93" rerouteNo="0" devices="tripinfo_right_35" vType="Car" speedFactor="1.02" vaporized=""/>
    <tripinfo id="right_19" depart="8.00" departLane="E2_1_0" departPos="4.10" departSpeed="0.00" departDelay="5.00" arrival="101.00" arrivalLane="0_W_0" arrivalPos="192.80" arrivalSpeed="15.09" duration="93.00" routeLength="595.90" waitingTime="31.00" waitingCount="4" stopTime="0.00" timeLoss="55.26" rerouteNo="0" devices="tripinfo_right_19" vType="Car" speedFactor="1.16" vaporized=""/>
    <tripinfo id="right_12" depart="5.00" departLane="W_0_0" departPos="4.10" departSpeed="0.00" departDelay="3.00" arrival="105.00" arrivalLane="1_E2_0" arrivalPos="192.80" arrivalSpeed="14.22" duration="100.00" routeLength="595.90" waitingTime="37.00" waitingCount="3" stopTime="0.00" timeLoss="59.00" rerouteNo="0" devices="tripinfo_right_12" vType="Car" speedFactor="1.05" vaporized=""/>
    <tripinfo id="right_44" depart="19.00" departLane="S_0_0" departPos="4.10" departSpeed="0.00" departDelay="12.00" arrival="106.00" arrivalLane="0_N_0" arrivalPos="192.80" arrivalSpeed="14.18" duration="87.00" routeLength="395.90" waitingTime="34.00" waitingCount="4" stopTime="0.00" timeLoss="59.28" rerouteNo="0" devices="tripinfo_right_44" vType="Car" speedFactor="1.04" vaporized=""/>
    <tripinfo id="right_45" depart="19.00" departLane="N_0_0" departPos="4.10" departSpeed="0.00" departDelay="12.00" arrival="106.00" arrivalLane="0_S_0" arrivalPos="192.80" arrivalSpeed="14.52" duration="87.00" routeLength="395.90" waitingTime="31.00" waitingCount="4" stopTime="0.00" timeLoss="60.31" rerouteNo="0" devices="tripinfo_right_45" vType="Car" speedFactor="1.09" vaporized=""/>
    <tripinfo id="right_51" depart="22.00" departLane="N_0_0" departPos="4.10" departSpeed="0.00" departDelay="14.00" arrival="107.00" arrivalLane="0_S_0" arrivalPos="192.80" arrivalSpeed="15.62" duration="85.00" routeLength="395.90" waitingTime="27.00" waitingCount="4" stopTime="0.00" timeLoss="60.61" rerouteNo="0" devices="tripinfo_right_51" vType="Car" speedFactor="1.17" vaporized=""/>
    <tripinfo id="right_57" depart="24.00" departLane="N_0_0" departPos="4.10" departSpeed="0.00" departDelay="15.00" arrival="109.00" arrivalLane="0_S_0" arrivalPos="192.80" arrivalSpeed="15.24" duration="85.00" routeLength="395.90" waitingTime="25.00" waitingCount="4" stopTime="0.00" timeLoss="59.59" rerouteNo="0" devices="tripinfo_right_57" vType="Car" speedFactor="1.14" vaporized=""/>
    <tripinfo id="right_50" depart="22.00" departLane="S_0_0" departPos="4.10" departSpeed="0.00" departDelay="14.00" arrival="111.00" arrivalLane="0_N_0" arrivalPos="192.80" arrivalSpeed="11.83" duration="89.00" routeLength="395.90" waitingTime="30.00" waitingCount="4" stopTime="0.00" timeLoss="54.85" rerouteNo="0" devices="tripinfo_right_50" vType="Car" speedFactor="0.85" vaporized=""/>
    <tripinfo id="right_56" depart="25.00" departLane="S_0_0" departPos="4.10" departSpeed="0.00" departDelay="16.00" arrival="112.00" arrivalLane="0_N_0" arrivalPos="192.80" arrivalSpeed="11.76" duration="87.00" routeLength="395.90" waitingTime="25.00" waitingCount="4" stopTime="0.00" timeLoss="55.23" rerouteNo="0" devices="tripinfo_right_56" vType="Car" speedFactor="0.90" vaporized=""/>
    <tripinfo id="right_63" depart="27.00" departLane="N_0_0" departPos="4.10" departSpeed="0.00" departDelay="17.00" arrival="112.00" arrivalLane="0_S_0" arrivalPos="192.80" arrivalSpeed="13.34" duration="85.00" routeLength="395.90" waitingTime="23.00" waitingCount="4" stopTime="0.00" timeLoss="56.04" rerouteNo="0" devices="tripinfo_right_63" vType="Car" speedFactor="0.99" vaporized=""/>
    <tripinfo id="right_40" depart="18.00" departLane="S2_1_0" departPos="4.10" departSpeed="0.00" departDelay="12.00" arrival="114.00" arrivalLane="1_N2_0" arrivalPos="192.80" arrivalSpeed="13.95" duration="96.00" routeLength="395.90" waitingTime="41.00" waitingCount="4" stopTime="0.00" timeLoss="67.48" rerouteNo="0" devices="tripinfo_right_40" vType="Car" speedFactor="1.03" vaporized=""/>
    <tripinfo id="right_41" depart="16.00" departLane="N2_1_0" departPos="4.10" departSpeed="0.00" departDelay="10.00" arrival="114.00" arrivalLane="1_S2_0" arrivalPos="192.80" arrivalSpeed="13.22" duration="98.00" routeLength="395.90" waitingTime="42.00" waitingCount="4" stopTime="0.00" timeLoss="67.90" rerouteNo="0" devices="tripinfo_right_41" vType="Car" speedFactor="0.96" vaporized=""/>
    <tripinfo id="right_62" depart="27.00" departLane="S_0_0" departPos="4.10" departSpeed="0.00" departDelay="17.00" arrival="114.00" arrivalLane="0_N_0" arrivalPos="192.80" arrivalSpeed="13.68" duration="87.00" routeLength="395.90" waitingTime="23.00" waitingCount="3" stopTime="0.00" timeLoss="58.30" rerouteNo="0" devices="tripinfo_right_62" vType="Car" speedFactor="1.02" vaporized=""/>
    <tripinfo id="right_68" depart="30.00" departLane="S_0_0" departPos="4.10" departSpeed="0.00" departDelay="19.00" arrival="115.00" arrivalLane="0_N_0" arrivalPos="192.80" arrivalSpeed="13.97" duration="85.00" routeLength="395.90" waitingTime="22.00" waitingCount="3" stopTime="0.00" timeLoss="57.50" rerouteNo="0" devices="tripinfo_right_68" vType="Car" speedFactor="1.04" vaporized=""/>
    <tripinfo id="right_25" depart="11.00" departLane="E2_1_0" departPos="4.10" departSpeed="0.00" departDelay="7.00" arrival="124.00" arrivalLane="0_W_0" arrivalPos="192.80" arrivalSpeed="11.47" duration="113.00" routeLength="595.90" waitingTime="36.00" waitingCount="5" stopTime="0.00" timeLoss="63.14" rerouteNo="0" devices="tripinfo_right_25" vType="Car" speedFactor="0.87" vaporized=""/>
    <tripinfo id="right_69" depart="29.00" departLane="N_0_0" departPos="4.10" departSpeed="0.00" departDelay="18.00" arrival="132.00" arrivalLane="0_S_0" arrivalPos="192.80" arrivalSpeed="13.58" duration="103.00" routeLength="395.90" waitingTime="36.00" waitingCount="4" stopTime="0.00" timeLoss="74.80" rerouteNo="0" devices="tripinfo_right_69" vType="Car" speedFactor="1.02" vaporized=""/>
    <tripinfo id="right_18" depart="8.00" departLane="W_0_0" departPos="4.10" departSpeed="0.00" departDelay="5.00" arrival="133.00" arrivalLane="1_E2_0" arrivalPos="192.80" arrivalSpeed="12.32" duration="125.00" routeLength="595.90" waitingTime="55.00" waitingCount="4" stopTime="0.00" timeLoss="78.93" rerouteNo="0" devices="tripinfo_right_18" vType="Car" speedFactor="0.94" vaporized=""/>
    <tripinfo id="right_74" depart="33.00" departLane="S_0_0" departPos="4.10" departSpeed="0.00" departDelay="21.00" arrival="133.00" arrivalLane="0_N_0" arrivalPos="192.80" arrivalSpeed="12.78" duration="100.00" routeLength="395.90" waitingTime="33.00" waitingCount="4" stopTime="0.00" timeLoss="70.00" rerouteNo="0" devices="tripinfo_right_74" vType="Car" speedFactor="0.96" vaporized=""/>
    <tripinfo id="right_75" depart="32.00" departLane="N_0_0" departPos="4.10" departSpeed="0.00" departDelay="20.00" arrival="135.00" arrivalLane="0_S_0" arrivalPos="192.80" arrivalSpeed="13.67" duration="103.00" routeLength="395.90" waitingTime="34.00" waitingCount="4" stopTime="0.00" timeLoss="73.28" rerouteNo="0" devices="tripinfo_right_75" vType="Car" speedFactor="0.98" vaporized=""/>
    <tripinfo id="right_80" depart="36.00" departLane="S_0_0" departPos="4.10" departSpeed="0.00" departDelay="23.00" arrival="135.00" arrivalLane="0_N_0" arrivalPos="192.80" arrivalSpeed="14.10" duration="99.00" routeLength="395.90" waitingTime="30.00" waitingCount="4" stopTime="0.00" timeLoss="70.83" rerouteNo="0" devices="tripinfo_right_80" vType="Car" speedFactor="1.03" vaporized=""/>
    <tripinfo id="right_81" depart="35.00" departLane="N_0_0" departPos="4.10" departSpeed="0.00" departDelay="22.00" arrival="136.00" arrivalLane="0_S_0" arrivalPos="192.80" arrivalSpeed="12.83" duration="101.00" routeLength="395.90" waitingTime="32.00" waitingCount="4" stopTime="0.00" timeLoss="72.40" rerouteNo="0" devices="tripinfo_right_81" vType="Car" speedFactor="1.00" vaporized=""/>
    <tripinfo id="right_86" depart="38.00" departLane="S_0_0" departPos="4.10" departSpeed="0.00" departDelay="24.00" arrival="136.00" arrivalLane="0_N_0" arrivalPos="192.80" arrivalSpeed="13.06" duration="98.00" routeLength="395.90" waitingTime="28.00" waitingCount="4" stopTime="0.00" timeLoss="69.55" rerouteNo="0" devices="tripinfo_right_86" vType="Car" speedFactor="1.00" vaporized=""/>
    <tripinfo id="right_31" depart="14.00" departLane="E2_1_0" departPos="4.10" departSpeed="0.00" departDelay="9.00" arrival="141.00" arrivalLane="0_W_0" arrivalPos="192.80" arrivalSpeed="15.67" duration="127.00" routeLength="595.90" waitingTime="49.00" waitingCount="5" stopTime="0.00" timeLoss="89.68" rerouteNo="0" devices="tripinfo_right_31" vType="Car" speedFactor="1.15" vaporized=""/>
    <tripinfo id="right_46" depart="20.00" departLane="S2_1_0" departPos="4.10" departSpeed="0.00" departDelay="13.00" arrival="141.00" arrivalLane="1_N2_0" arrivalPos="192.80" arrivalSpeed="13.09" duration="121.00" routeLength="395.90" waitingTime="62.00" waitingCount="6" stopTime="0.00" timeLoss="91.83" rerouteNo="0" devices="tripinfo_right_46" vType="Car" speedFactor="1.00" vaporized=""/>
    <tripinfo id="right_47" depart="19.00" departLane="N2_1_0" departPos="4.10" departSpeed="0.00" departDelay="12.00" arrival="142.00" arrivalLane="1_S2_0" arrivalPos="192.80" arrivalSpeed="12.11" duration="123.00" routeLength="395.90" waitingTime="61.00" waitingCount="5" stopTime="0.00" timeLoss="91.16" rerouteNo="0" devices="tripinfo_right_47" vType="Car" speedFactor="0.90" vaporized=""/>
    <tripinfo id="right_52" depart="23.00" departLane="S2_1_0" departPos="4.10" departSpeed="0.00" departDelay="15.00" arrival="142.00" arrivalLane="1_N2_0" arrivalPos="192.80" arrivalSpeed="13.22" duration="119.00" routeLength="395.90" waitingTime="58.00" waitingCount="4" stopTime="0.00" timeLoss="90.93" rerouteNo="0" devices="tripinfo_right_52" vType="Car" speedFactor="1.02" vaporized=""/>
    <tripinfo id="right_37" depart="17.00" departLane="E2_1_0" departPos="4.10" departSpeed="0.00" departDelay="11.00" arrival="143.00" arrivalLane="0_W_0" arrivalPos="192.80" arrivalSpeed="15.99" duration="126.00" routeLength="595.90" waitingTime="46.00" waitingCount="5" stopTime="0.00" timeLoss="89.00" rerouteNo="0" devices="tripinfo_right_37" vType="Car" speedFactor="1.18" vaporized=""/>
    <tripinfo id="right_53" depart="22.00" departLane="N2_1_0" departPos="4.10" departSpeed="0.00" departDelay="14.00" arrival="144.00" arrivalLane="1_S2_0" arrivalPos="192.80" arrivalSpeed="14.56" duration="122.00" routeLength="395.90" waitingTime="57.00" waitingCount="5" stopTime="0.00" timeLoss="95.24" rerouteNo="0" devices="tripinfo_right_53" vType="Car" speedFactor="1.10" vaporized=""/>
    <tripinfo id="right_24" depart="11.00" departLane="W_0_0" departPos="4.10" departSpeed="0.00" departDelay="7.00" arrival="153.00" arrivalLane="1_E2_0" arrivalPos="192.80" arrivalSpeed="10.76" duration="142.00" routeLength="595.90" waitingTime="64.00" waitingCount="5" stopTime="0.00" timeLoss="89.94" rerouteNo="0" devices="tripinfo_right_24" vType="Car" speedFactor="0.83" vaporized=""/>
    <tripinfo id="right_87" depart="37.00" departLane="N_0_0" departPos="4.10" departSpeed="0.00" departDelay="23.00" arrival="155.00" arrivalLane="0_S_0" arrivalPos="192.80" arrivalSpeed="13.79" duration="118.00" routeLength="395.90" waitingTime="44.00" waitingCount="5" stopTime="0.00" timeLoss="89.73" rerouteNo="0" devices="tripinfo_right_87" vType="Car" speedFactor="1.04" vaporized=""/>
    <tripinfo id="right_92" depart="41.00" departLane="S_0_0" departPos="4.10" departSpeed="0.00" departDelay="26.00" arrival="157.00" arrivalLane="0_N_0" arrivalPos="192.80" arrivalSpeed="11.08" duration="116.00" routeLength="395.90" waitingTime="39.00" waitingCount="5" stopTime="0.00" timeLoss="81.69" rerouteNo="0" devices="tripinfo_right_92" vType="Car" speedFactor="0.83" vaporized=""/>
    <tripinfo id="right_58" depart="26.00" departLane="S2_1_0" departPos="4.10" departSpeed="0.00" departDelay="17.00" arrival="158.00" arrivalLane="1_N2_0" arrivalPos="192.80" arrivalSpeed="13.61" duration="132.00" routeLength="395.90" waitingTime="65.00" waitingCount="5" stopTime="0.00" timeLoss="104.05" rerouteNo="0" devices="tripinfo_right_58" vType="Car" speedFactor="1.02" vaporized=""/>
    <tripinfo id="right_59" depart="25.00" departLane="N2_1_0" departPos="4.10" departSpeed="0.00" departDelay="16.00" arrival="159.00" arrivalLane="1_S2_0" arrivalPos="192.80" arrivalSpeed="13.31" duration="134.00" routeLength="395.90" waitingTime="65.00" waitingCount="5" stopTime="0.00" timeLoss="104.22" rerouteNo="0" devices="tripinfo_right_59" vType="Car" speedFactor="0.97" vaporized=""/>
    <tripinfo id="right_43" depart="20.00" departLane="E2_1_0" departPos="4.10" departSpeed="0.00" departDelay="13.00" arrival="161.00" arrivalLane="0_W_0" arrivalPos="192.80" arrivalSpeed="13.98" duration="141.00" routeLength="595.90" waitingTime="56.00" waitingCount="6" stopTime="0.00" timeLoss="99.17" rerouteNo="0" devices="tripinfo_right_43" vType="Car" speedFactor="1.04" vaporized=""/>
    <tripinfo id="right_30" depart="13.00" departLane="W_0_0" departPos="4.10" departSpeed="0.00" departDelay="8.00" arrival="164.00" arrivalLane="1_E2_0" arrivalPos="192.80" arrivalSpeed="15.75" duration="151.00" routeLength="595.90" waitingTime="76.00" waitingCount="7" stopTime="0.00" timeLoss="114.32" rerouteNo="0" devices="tripinfo_right_30" vType="Car" speedFactor="1.18" vaporized=""/>
    <tripinfo id="right_98" depart="44.00" departLane="S_0_0" departPos="4.10" departSpeed="0.00" departDelay="28.00" arrival="166.00" arrivalLane="0_N_0" arrivalPos="192.80" arrivalSpeed="14.58" duration="122.00" routeLength="395.90" waitingTime="43.00" waitingCount="6" stopTime="0.00" timeLoss="95.71" rerouteNo="0" devices="tripinfo_right_98" vType="Car" speedFactor="1.12" vaporized=""/>
    <tripinfo id="right_93" depart="40.00" departLane="N_0_0" departPos="4.10" departSpeed="0.00" departDelay="25.00" arrival="168.00" arrivalLane="0_S_0" arrivalPos="192.80" arrivalSpeed="12.10" duration="128.00" routeLength="395.90" waitingTime="48.00" waitingCount="6" stopTime="0.00" timeLoss="96.74" rerouteNo="0" devices="tripinfo_right_93" vType="Car" speedFactor="0.92" vaporized=""/>
    <tripinfo id="right_64" depart="29.00" departLane="S2_1_0" departPos="4.10" departSpeed="0.00" departDelay="19.00" arrival="172.00" arrivalLane="1_N2_0" arrivalPos="192.80" arrivalSpeed="12.20" duration="143.00" routeLength="395.90" waitingTime="74.00" waitingCount="6" stopTime="0.00" timeLoss="112.61" rerouteNo="0" devices="tripinfo_right_64" vType="Car" speedFactor="0.94" vaporized=""/>
    <tripinfo id="right_49" depart="23.00" departLane="E2_1_0" departPos="4.10" departSpeed="0.00" departDelay="15.00" arrival="174.00" arrivalLane="0_W_0" arrivalPos="192.80" arrivalSpeed="11.23" duration="151.00" routeLength="595.90" waitingTime="57.00" waitingCount="7" stopTime="0.00" timeLoss="100.56" rerouteNo="0" devices="tripinfo_right_49" vType="Car" speedFactor="0.85" vaporized=""/>
    <tripinfo id="right_65" depart="28.00" departLane="N2_1_0" departPos="4.10" departSpeed="0.00" departDelay="18.00" arrival="174.00" arrivalLane="1_S2_0" arrivalPos="192.80" arrivalSpeed="11.98" duration="146.00" routeLength="395.90" waitingTime="69.00" waitingCount="6" stopTime="0.00" timeLoss="113.10" rerouteNo="0" devices="tripinfo_right_65" vType="Car" speedFactor="0.88" vaporized=""/>
    <tripinfo id="right_36" depart="17.00" departLane="W_0_0" departPos="4.10" departSpeed="0.00" departDelay="11.00" arrival="176.00" arrivalLane="1_E2_0" arrivalPos="192.80" arrivalSpeed="12.96" duration="159.00" routeLength="595.90" waitingTime="75.00" waitingCount="7" stopTime="0.00" timeLoss="114.30" rerouteNo="0" devices="tripinfo_right_36" vType="Car" speedFactor="0.97" vaporized=""/>
    <tripinfo id="right_55" depart="26.00" departLane="E2_1_0" departPos="4.10" departSpeed="0.00" departDelay="17.00" arrival="176.00" arrivalLane="0_W_0" arrivalPos="192.80" arrivalSpeed="13.70" duration="150.00" routeLength="595.90" waitingTime="55.00" waitingCount="7" stopTime="0.00" timeLoss="106.37" rerouteNo="0" devices="tripinfo_right_55" vType="Car" speedFactor="1.00" vaporized=""/>
    <tripinfo id="right_61" depart="29.00" departLane="E2_1_0" departPos="4.10" departSpeed="0.00" departDelay="19.00" arrival="177.00" arrivalLane="0_W_0" arrivalPos="192.80" arrivalSpeed="15.37" duration="148.00" routeLength="595.90" waitingTime="50.00" waitingCount="7" stopTime="0.00" timeLoss="109.60" rerouteNo="0" devices="tripinfo_right_61" vType="Car" speedFactor="1.12" vaporized=""/>