<?xml version="1.0" encoding="UTF-8"?>

<!-- generated on 10/18/20 23:46:50 by Eclipse SUMO Version 1.6.0
<configuration xmlns:xsi="http://www.w3.org/2001/XMLSchema-instance" xsi:noNamespaceSchemaLocation="http://sumo.dlr.de/xsd/sumoConfiguration.xsd">

    <input>
        <net-file value="C:\Users\Konrad\Desktop\Materialy_studia\Inz_Materialy\RL_Traffic\gym_env\envs\cfg_2\Intersection.net.xml"/>
        <route-files value="C:\Users\Konrad\Desktop\Materialy_studia\Inz_Materialy\RL_Traffic\gym_env\envs\cfg_2\Intersection.rou.xml"/>
        <additional-files value="C:\Users\Konrad\Desktop\Materialy_studia\Inz_Materialy\RL_Traffic\gym_env\envs\cfg_2\Intersection.add.xml"/>
    </input>

    <output>
        <tripinfo-output value="C:\Users\Konrad\Desktop\Materialy_studia\Inz_Materialy\RL_Traffic\gym_env\envs\cfg_2\tripinfo.xml"/>
    </output>

    <processing>
        <tls.actuated.show-detectors value="true"/>
    </processing>

    <traci_server>
        <remote-port value="64319"/>
    </traci_server>

    <gui_only>
        <quit-on-end value="true"/>
    </gui_only>

</configuration>
-->

<tripinfos xmlns:xsi="http://www.w3.org/2001/XMLSchema-instance" xsi:noNamespaceSchemaLocation="http://sumo.dlr.de/xsd/tripinfo_file.xsd">
    <tripinfo id="right_3" depart="0.00" departLane="N_0_0" departPos="4.10" departSpeed="0.00" departDelay="0.00" arrival="31.00" arrivalLane="0_S_0" arrivalPos="192.80" arrivalSpeed="15.01" duration="31.00" routeLength="395.90" waitingTime="0.00" waitingCount="0" stopTime="0.00" timeLoss="3.81" rerouteNo="0" devices="tripinfo_right_3" vType="Car" speedFactor="1.08" vaporized=""/>
    <tripinfo id="right_2" depart="0.00" departLane="S_0_0" departPos="4.10" departSpeed="0.00" departDelay="0.00" arrival="32.00" arrivalLane="0_N_0" arrivalPos="192.80" arrivalSpeed="13.81" duration="32.00" routeLength="395.90" waitingTime="0.00" waitingCount="0" stopTime="0.00" timeLoss="3.66" rerouteNo="0" devices="tripinfo_right_2" vType="Car" speedFactor="1.01" vaporized=""/>
    <tripinfo id="right_8" depart="3.00" departLane="S_0_0" departPos="4.10" departSpeed="0.00" departDelay="2.00" arrival="38.00" arrivalLane="0_N_0" arrivalPos="192.80" arrivalSpeed="12.94" duration="35.00" routeLength="395.90" waitingTime="0.00" waitingCount="0" stopTime="0.00" timeLoss="4.55" rerouteNo="0" devices="tripinfo_right_8" vType="Car" speedFactor="0.94" vaporized=""/>
    <tripinfo id="right_14" depart="5.00" departLane="S_0_0" departPos="4.10" departSpeed="0.00" departDelay="3.00" arrival="40.00" arrivalLane="0_N_0" arrivalPos="192.80" arrivalSpeed="13.45" duration="35.00" routeLength="395.90" waitingTime="0.00" waitingCount="0" stopTime="0.00" timeLoss="5.78" rerouteNo="0" devices="tripinfo_right_14" vType="Car" speedFactor="0.99" vaporized=""/>
    <tripinfo id="right_9" depart="3.00" departLane="N_0_0" departPos="4.10" departSpeed="0.00" departDelay="2.00" arrival="44.00" arrivalLane="0_S_0" arrivalPos="192.80" arrivalSpeed="11.80" duration="41.00" routeLength="395.90" waitingTime="1.00" waitingCount="1" stopTime="0.00" timeLoss="7.40" rerouteNo="0" devices="tripinfo_right_9" vType="Car" speedFactor="0.86" vaporized=""/>
    <tripinfo id="right_4" depart="0.00" departLane="S2_1_0" departPos="4.10" departSpeed="0.00" departDelay="0.00" arrival="46.00" arrivalLane="1_N2_0" arrivalPos="192.80" arrivalSpeed="14.17" duration="46.00" routeLength="395.90" waitingTime="8.00" waitingCount="1" stopTime="0.00" timeLoss="17.43" rerouteNo="0" devices="tripinfo_right_4" vType="Car" speedFactor="1.03" vaporized=""/>
    <tripinfo id="right_15" depart="6.00" departLane="N_0_0" departPos="4.10" departSpeed="0.00" departDelay="4.00" arrival="48.00" arrivalLane="0_S_0" arrivalPos="192.80" arrivalSpeed="12.60" duration="42.00" routeLength="395.90" waitingTime="1.00" waitingCount="1" stopTime="0.00" timeLoss="11.05" rerouteNo="0" devices="tripinfo_right_15" vType="Car" speedFactor="0.93" vaporized=""/>
    <tripinfo id="right_20" depart="8.00" departLane="S_0_0" departPos="4.10" departSpeed="0.00" departDelay="5.00" arrival="48.00" arrivalLane="0_N_0" arrivalPos="192.80" arrivalSpeed="13.92" duration="40.00" routeLength="395.90" waitingTime="1.00" waitingCount="1" stopTime="0.00" timeLoss="11.82" rerouteNo="0" devices="tripinfo_right_20" vType="Car" speedFactor="1.02" vaporized=""/>
    <tripinfo id="right_5" depart="0.00" departLane="N2_1_0" departPos="4.10" departSpeed="0.00" departDelay="0.00" arrival="50.00" arrivalLane="1_S2_0" arrivalPos="192.80" arrivalSpeed="10.86" duration="50.00" routeLength="395.90" waitingTime="6.00" waitingCount="1" stopTime="0.00" timeLoss="15.45" rerouteNo="0" devices="tripinfo_right_5" vType="Car" speedFactor="0.83" vaporized=""/>
    <tripinfo id="right_21" depart="9.00" departLane="N_0_0" departPos="4.10" departSpeed="0.00" departDelay="6.00" arrival="50.00" arrivalLane="0_S_0" arrivalPos="192.80" arrivalSpeed="13.39" duration="41.00" routeLength="395.90" waitingTime="0.00" waitingCount="0" stopTime="0.00" timeLoss="12.30" rerouteNo="0" devices="tripinfo_right_21" vType="Car" speedFactor="1.01" vaporized=""/>
    <tripinfo id="right_26" depart="11.00" departLane="S_0_0" departPos="4.10" departSpeed="0.00" departDelay="7.00" arrival="51.00" arrivalLane="0_N_0" arrivalPos="192.80" arrivalSpeed="12.56" duration="40.00" routeLength="395.90" waitingTime="0.00" waitingCount="0" stopTime="0.00" timeLoss="8.84" rerouteNo="0" devices="tripinfo_right_26" vType="Car" speedFactor="0.92" vaporized=""/>
    <tripinfo id="right_10" depart="3.00" departLane="S2_1_0" departPos="4.10" departSpeed="0.00" departDelay="2.00" arrival="52.00" arrivalLane="1_N2_0" arrivalPos="192.80" arrivalSpeed="14.60" duration="49.00" routeLength="395.90" waitingTime="7.00" waitingCount="2" stopTime="0.00" timeLoss="22.05" rerouteNo="0" devices="tripinfo_right_10" vType="Car" speedFactor="1.09" vaporized=""/>
    <tripinfo id="right_11" depart="3.00" departLane="N2_1_0" departPos="4.10" departSpeed="0.00" departDelay="2.00" arrival="52.00" arrivalLane="1_S2_0" arrivalPos="192.80" arrivalSpeed="13.44" duration="49.00" routeLength="395.90" waitingTime="5.00" waitingCount="1" stopTime="0.00" timeLoss="20.77" rerouteNo="0" devices="tripinfo_right_11" vType="Car" speedFactor="1.03" vaporized=""/>
    <tripinfo id="right_27" depart="11.00" departLane="N_0_0" departPos="4.10" departSpeed="0.00" departDelay="7.00" arrival="52.00" arrivalLane="0_S_0" arrivalPos="192.80" arrivalSpeed="12.73" duration="41.00" routeLength="395.90" waitingTime="0.00" waitingCount="0" stopTime="0.00" timeLoss="10.76" rerouteNo="0" devices="tripinfo_right_27" vType="Car" speedFactor="0.95" vaporized=""/>
    <tripinfo id="right_32" depart="14.00" departLane="S_0_0" departPos="4.10" departSpeed="0.00" departDelay="9.00" arrival="53.00" arrivalLane="0_N_0" arrivalPos="192.80" arrivalSpeed="13.90" duration="39.00" routeLength="395.90" waitingTime="0.00" waitingCount="0" stopTime="0.00" timeLoss="10.07" rerouteNo="0" devices="tripinfo_right_32" vType="Car" speedFactor="1.01" vaporized=""/>
    <tripinfo id="right_33" depart="14.00" departLane="N_0_0" departPos="4.10" departSpeed="0.00" departDelay="9.00" arrival="54.00" arrivalLane="0_S_0" arrivalPos="192.80" arrivalSpeed="15.23" duration="40.00" routeLength="395.90" waitingTime="0.00" waitingCount="0" stopTime="0.00" timeLoss="15.07" rerouteNo="0" devices="tripinfo_right_33" vType="Car" speedFactor="1.17" vaporized=""/>
    <tripinfo id="right_38" depart="16.00" departLane="S_0_0" departPos="4.10" departSpeed="0.00" departDelay="10.00" arrival="54.00" arrivalLane="0_N_0" arrivalPos="192.80" arrivalSpeed="14.70" duration="38.00" routeLength="395.90" waitingTime="0.00" waitingCount="0" stopTime="0.00" timeLoss="12.13" rerouteNo="0" devices="tripinfo_right_38" vType="Car" speedFactor="1.10" vaporized=""/>
    <tripinfo id="right_1" depart="0.00" departLane="E2_1_0" departPos="4.10" departSpeed="0.00" departDelay="0.00" arrival="59.00" arrivalLane="0_W_0" arrivalPos="192.80" arrivalSpeed="12.02" duration="59.00" routeLength="595.90" waitingTime="4.00" waitingCount="1" stopTime="0.00" timeLoss="12.82" rerouteNo="0" devices="tripinfo_right_1" vType="Car" speedFactor="0.94" vaporized=""/>
    <tripinfo id="right_16" depart="6.00" departLane="S2_1_0" departPos="4.10" departSpeed="0.00" departDelay="4.00" arrival="60.00" arrivalLane="1_N2_0" arrivalPos="192.80" arrivalSpeed="11.77" duration="54.00" routeLength="395.90" waitingTime="3.00" waitingCount="2" stopTime="0.00" timeLoss="20.82" rerouteNo="0" devices="tripinfo_right_16" vType="Car" speedFactor="0.88" vaporized=""/>
    <tripinfo id="right_7" depart="2.00" departLane="E2_1_0" departPos="4.10" departSpeed="0.00" departDelay="1.00" arrival="61.00" arrivalLane="0_W_0" arrivalPos="192.80" arrivalSpeed="12.09" duration="59.00" routeLength="595.90" waitingTime="0.00" waitingCount="0" stopTime="0.00" timeLoss="10.43" rerouteNo="0" devices="tripinfo_right_7" vType="Car" speedFactor="0.89" vaporized=""/>
    <tripinfo id="right_17" depart="6.00" departLane="N2_1_0" departPos="4.10" departSpeed="0.00" departDelay="4.00" arrival="61.00" arrivalLane="1_S2_0" arrivalPos="192.80" arrivalSpeed="12.77" duration="55.00" routeLength="395.90" waitingTime="7.00" waitingCount="2" stopTime="0.00" timeLoss="23.81" rerouteNo="0" devices="tripinfo_right_17" vType="Car" speedFactor="0.94" vaporized=""/>
    <tripinfo id="right_0" depart="0.00" departLane="W_0_0" departPos="4.10" departSpeed="0.00" departDelay="0.00" arrival="63.00" arrivalLane="1_E2_0" arrivalPos="192.80" arrivalSpeed="14.56" duration="63.00" routeLength="595.90" waitingTime="8.00" waitingCount="2" stopTime="0.00" timeLoss="21.85" rerouteNo="0" devices="tripinfo_right_0" vType="Car" speedFactor="1.06" vaporized=""/>
    <tripinfo id="right_13" depart="5.00" departLane="E2_1_0" departPos="4.10" departSpeed="0.00" departDelay="3.00" arrival="63.00" arrivalLane="0_W_0" arrivalPos="192.80" arrivalSpeed="15.37" duration="58.00" routeLength="595.90" waitingTime="0.00" waitingCount="0" stopTime="0.00" timeLoss="19.05" rerouteNo="0" devices="tripinfo_right_13" vType="Car" speedFactor="1.12" vaporized=""/>
    <tripinfo id="right_44" depart="19.00" departLane="S_0_0" departPos="4.10" departSpeed="0.00" departDelay="12.00" arrival="67.00" arrivalLane="0_N_0" arrivalPos="192.80" arrivalSpeed="14.12" duration="48.00" routeLength="395.90" waitingTime="6.00" waitingCount="1" stopTime="0.00" timeLoss="19.73" rerouteNo="0" devices="tripinfo_right_44" vType="Car" speedFactor="1.04" vaporized=""/>
    <tripinfo id="right_22" depart="9.00" departLane="S2_1_0" departPos="4.10" departSpeed="0.00" departDelay="6.00" arrival="68.00" arrivalLane="1_N2_0" arrivalPos="192.80" arrivalSpeed="13.46" duration="59.00" routeLength="395.90" waitingTime="7.00" waitingCount="3" stopTime="0.00" timeLoss="29.44" rerouteNo="0" devices="tripinfo_right_22" vType="Car" speedFactor="0.98" vaporized=""/>
    <tripinfo id="right_23" depart="8.00" departLane="N2_1_0" departPos="4.10" departSpeed="0.00" departDelay="5.00" arrival="68.00" arrivalLane="1_S2_0" arrivalPos="192.80" arrivalSpeed="12.15" duration="60.00" routeLength="395.90" waitingTime="5.00" waitingCount="2" stopTime="0.00" timeLoss="27.15" rerouteNo="0" devices="tripinfo_right_23" vType="Car" speedFactor="0.89" vaporized=""/>
    <tripinfo id="right_6" depart="3.00" departLane="W_0_0" departPos="4.10" departSpeed="0.00" departDelay="2.00" arrival="69.00" arrivalLane="1_E2_0" arrivalPos="192.80" arrivalSpeed="13.86" duration="66.00" routeLength="595.90" waitingTime="2.00" waitingCount="1" stopTime="0.00" timeLoss="24.25" rerouteNo="0" devices="tripinfo_right_6" vType="Car" speedFactor="1.05" vaporized=""/>
    <tripinfo id="right_19" depart="8.00" departLane="E2_1_0" departPos="4.10" departSpeed="0.00" departDelay="5.00" arrival="69.00" arrivalLane="0_W_0" arrivalPos="192.80" arrivalSpeed="15.09" duration="61.00" routeLength="595.90" waitingTime="3.00" waitingCount="2" stopTime="0.00" timeLoss="23.46" rerouteNo="0" devices="tripinfo_right_19" vType="Car" speedFactor="1.16" vaporized=""/>
    <tripinfo id="right_39" depart="17.00" departLane="N_0_0" departPos="4.10" departSpeed="0.00" departDelay="11.00" arrival="69.00" arrivalLane="0_S_0" arrivalPos="192.80" arrivalSpeed="12.10" duration="52.00" routeLength="395.90" waitingTime="8.00" waitingCount="1" stopTime="0.00" timeLoss="19.47" rerouteNo="0" devices="tripinfo_right_39" vType="Car" speedFactor="0.90" vaporized=""/>
    <tripinfo id="right_28" depart="12.00" departLane="S2_1_0" departPos="4.10" departSpeed="0.00" departDelay="8.00" arrival="72.00" arrivalLane="1_N2_0" arrivalPos="192.80" arrivalSpeed="15.07" duration="60.00" routeLength="395.90" waitingTime="9.00" waitingCount="4" stopTime="0.00" timeLoss="34.82" rerouteNo="0" devices="tripinfo_right_28" vType="Car" speedFactor="1.13" vaporized=""/>
    <tripinfo id="right_45" depart="20.00" departLane="N_0_0" departPos="4.10" departSpeed="0.00" departDelay="13.00" arrival="73.00" arrivalLane="0_S_0" arrivalPos="192.80" arrivalSpeed="14.81" duration="53.00" routeLength="395.90" waitingTime="10.00" waitingCount="2" stopTime="0.00" timeLoss="26.72" rerouteNo="0" devices="tripinfo_right_45" vType="Car" speedFactor="1.09" vaporized=""/>
    <tripinfo id="right_50" depart="22.00" departLane="S_0_0" departPos="4.10" departSpeed="0.00" departDelay="14.00" arrival="76.00" arrivalLane="0_N_0" arrivalPos="192.80" arrivalSpeed="11.44" duration="54.00" routeLength="395.90" waitingTime="8.00" waitingCount="2" stopTime="0.00" timeLoss="20.04" rerouteNo="0" devices="tripinfo_right_50" vType="Car" speedFactor="0.85" vaporized=""/>
    <tripinfo id="right_29" depart="11.00" departLane="N2_1_0" departPos="4.10" departSpeed="0.00" departDelay="7.00" arrival="77.00" arrivalLane="1_S2_0" arrivalPos="192.80" arrivalSpeed="11.91" duration="66.00" routeLength="395.90" waitingTime="6.00" waitingCount="4" stopTime="0.00" timeLoss="34.92" rerouteNo="0" devices="tripinfo_right_29" vType="Car" speedFactor="0.93" vaporized=""/>
    <tripinfo id="right_12" depart="5.00" departLane="W_0_0" departPos="4.10" departSpeed="0.00" departDelay="3.00" arrival="79.00" arrivalLane="1_E2_0" arrivalPos="192.80" arrivalSpeed="13.83" duration="74.00" routeLength="595.90" waitingTime="11.00" waitingCount="3" stopTime="0.00" timeLoss="32.55" rerouteNo="0" devices="tripinfo_right_12" vType="Car" speedFactor="1.05" vaporized=""/>
    <tripinfo id="right_35" depart="14.00" departLane="N2_1_0" departPos="4.10" departSpeed="0.00" departDelay="9.00" arrival="81.00" arrivalLane="1_S2_0" arrivalPos="192.80" arrivalSpeed="14.08" duration="67.00" routeLength="395.90" waitingTime="4.00" waitingCount="3" stopTime="0.00" timeLoss="38.70" rerouteNo="0" devices="tripinfo_right_35" vType="Car" speedFactor="1.02" vaporized=""/>
    <tripinfo id="right_34" depart="15.00" departLane="S2_1_0" departPos="4.10" departSpeed="0.00" departDelay="10.00" arrival="82.00" arrivalLane="1_N2_0" arrivalPos="192.80" arrivalSpeed="12.89" duration="67.00" routeLength="395.90" waitingTime="7.00" waitingCount="4" stopTime="0.00" timeLoss="38.26" rerouteNo="0" devices="tripinfo_right_34" vType="Car" speedFactor="0.99" vaporized=""/>
    <tripinfo id="right_56" depart="25.00" departLane="S_0_0" departPos="4.10" departSpeed="0.00" departDelay="16.00" arrival="83.00" arrivalLane="0_N_0" arrivalPos="192.80" arrivalSpeed="12.23" duration="58.00" routeLength="395.90" waitingTime="11.00" waitingCount="3" stopTime="0.00" timeLoss="25.79" rerouteNo="0" devices="tripinfo_right_56" vType="Car" speedFactor="0.90" vaporized=""/>
    <tripinfo id="right_62" depart="27.00" departLane="S_0_0" departPos="4.10" departSpeed="0.00" departDelay="17.00" arrival="87.00" arrivalLane="0_N_0" arrivalPos="192.80" arrivalSpeed="13.69" duration="60.00" routeLength="395.90" waitingTime="8.00" waitingCount="3" stopTime="0.00" timeLoss="31.54" rerouteNo="0" devices="tripinfo_right_62" vType="Car" speedFactor="1.02" vaporized=""/>
    <tripinfo id="right_18" depart="8.00" departLane="W_0_0" departPos="4.10" departSpeed="0.00" departDelay="5.00" arrival="88.00" arrivalLane="1_E2_0" arrivalPos="192.80" arrivalSpeed="12.53" duration="80.00" routeLength="595.90" waitingTime="10.00" waitingCount="2" stopTime="0.00" timeLoss="33.50" rerouteNo="0" devices="tripinfo_right_18" vType="Car" speedFactor="0.94" vaporized=""/>
    <tripinfo id="right_25" depart="11.00" departLane="E2_1_0" departPos="4.10" departSpeed="0.00" departDelay="7.00" arrival="88.00" arrivalLane="0_W_0" arrivalPos="192.80" arrivalSpeed="11.57" duration="77.00" routeLength="595.90" waitingTime="7.00" waitingCount="2" stopTime="0.00" timeLoss="27.03" rerouteNo="0" devices="tripinfo_right_25" vType="Car" speedFactor="0.87" vaporized=""/>
    <tripinfo id="right_51" depart="23.00" departLane="N_0_0" departPos="4.10" departSpeed="0.00" departDelay="15.00" arrival="88.00" arrivalLane="0_S_0" arrivalPos="192.80" arrivalSpeed="15.33" duration="65.00" routeLength="395.90" waitingTime="16.00" waitingCount="4" stopTime="0.00" timeLoss="39.91" rerouteNo="0" devices="tripinfo_right_51" vType="Car" speedFactor="1.17" vaporized=""/>
    <tripinfo id="right_31" depart="14.00" departLane="E2_1_0" departPos="4.10" departSpeed="0.00" departDelay="9.00" arrival="91.00" arrivalLane="0_W_0" arrivalPos="192.80" arrivalSpeed="15.64" duration="77.00" routeLength="595.90" waitingTime="8.00" waitingCount="4" stopTime="0.00" timeLoss="39.05" rerouteNo="0" devices="tripinfo_right_31" vType="Car" speedFactor="1.15" vaporized=""/>
    <tripinfo id="right_37" depart="17.00" departLane="E2_1_0" departPos="4.10" departSpeed="0.00" departDelay="11.00" arrival="94.00" arrivalLane="0_W_0" arrivalPos="192.80" arrivalSpeed="16.25" duration="77.00" routeLength="595.90" waitingTime="8.00" waitingCount="3" stopTime="0.00" timeLoss="40.17" rerouteNo="0" devices="tripinfo_right_37" vType="Car" speedFactor="1.18" vaporized=""/>
    <tripinfo id="right_57" depart="26.00" departLane="N_0_0" departPos="4.10" departSpeed="0.00" departDelay="17.00" arrival="97.00" arrivalLane="0_S_0" arrivalPos="192.80" arrivalSpeed="15.26" duration="71.00" routeLength="395.90" waitingTime="18.00" waitingCount="5" stopTime="0.00" timeLoss="45.94" rerouteNo="0" devices="tripinfo_right_57" vType="Car" speedFactor="1.14" vaporized=""/>
    <tripinfo id="right_24" depart="11.00" departLane="W_0_0" departPos="4.10" departSpeed="0.00" departDelay="7.00" arrival="98.00" arrivalLane="1_E2_0" arrivalPos="192.80" arrivalSpeed="10.57" duration="87.00" routeLength="595.90" waitingTime="13.00" waitingCount="3" stopTime="0.00" timeLoss="34.34" rerouteNo="0" devices="tripinfo_right_24" vType="Car" speedFactor="0.83" vaporized=""/>
    <tripinfo id="right_68" depart="30.00" departLane="S_0_0" departPos="4.10" departSpeed="0.00" departDelay="19.00" arrival="98.00" arrivalLane="0_N_0" arrivalPos="192.80" arrivalSpeed="13.77" duration="68.00" routeLength="395.90" waitingTime="12.00" waitingCount="4" stopTime="0.00" timeLoss="40.50" rerouteNo="0" devices="tripinfo_right_68" vType="Car" speedFactor="1.04" vaporized=""/>
    <tripinfo id="right_30" depart="13.00" departLane="W_0_0" departPos="4.10" departSpeed="0.00" departDelay="8.00" arrival="99.00" arrivalLane="1_E2_0" arrivalPos="192.80" arrivalSpeed="13.07" duration="86.00" routeLength="595.90" waitingTime="13.00" waitingCount="4" stopTime="0.00" timeLoss="49.45" rerouteNo="0" devices="tripinfo_right_30" vType="Car" speedFactor="1.18" vaporized=""/>
    <tripinfo id="right_36" depart="17.00" departLane="W_0_0" departPos="4.10" departSpeed="0.00" departDelay="11.00" arrival="102.00" arrivalLane="1_E2_0" arrivalPos="192.80" arrivalSpeed="12.55" duration="85.00" routeLength="595.90" waitingTime="10.00" waitingCount="3" stopTime="0.00" timeLoss="40.76" rerouteNo="0" devices="tripinfo_right_36" vType="Car" speedFactor="0.97" vaporized=""/>
    <tripinfo id="right_43" depart="20.00" departLane="E2_1_0" departPos="4.10" departSpeed="0.00" departDelay="13.00" arrival="102.00" arrivalLane="0_W_0" arrivalPos="192.80" arrivalSpeed="13.99" duration="82.00" routeLength="595.90" waitingTime="8.00" waitingCount="3" stopTime="0.00" timeLoss="39.83" rerouteNo="0" devices="tripinfo_right_43" vType="Car" speedFactor="1.04" vaporized=""/>
    <tripinfo id="right_40" depart="18.00" departLane="S2_1_0" departPos="4.10" departSpeed="0.00" departDelay="12.00" arrival="105.00" arrivalLane="1_N2_0" arrivalPos="192.80" arrivalSpeed="13.38" duration="87.00" routeLength="395.90" waitingTime="22.00" waitingCount="4" stopTime="0.00" timeLoss="58.79" rerouteNo="0" devices="tripinfo_right_40" vType="Car" speedFactor="1.03" vaporized=""/>
    <tripinfo id="right_41" depart="16.00" departLane="N2_1_0" departPos="4.10" departSpeed="0.00" departDelay="10.00" arrival="105.00" arrivalLane="1_S2_0" arrivalPos="192.80" arrivalSpeed="12.46" duration="89.00" routeLength="395.90" waitingTime="23.00" waitingCount="3" stopTime="0.00" timeLoss="59.09" rerouteNo="0" devices="tripinfo_right_41" vType="Car" speedFactor="0.96" vaporized=""/>
    <tripinfo id="right_63" depart="28.00" departLane="N_0_0" departPos="4.10" departSpeed="0.00" departDelay="18.00" arrival="106.00" arrivalLane="0_S_0" arrivalPos="192.80" arrivalSpeed="13.62" duration="78.00" routeLength="395.90" waitingTime="16.00" waitingCount="6" stopTime="0.00" timeLoss="48.37" rerouteNo="0" devices="tripinfo_right_63" vType="Car" speedFactor="0.99" vaporized=""/>
    <tripinfo id="right_42" depart="19.00" departLane="W_0_0" departPos="4.10" departSpeed="0.00" departDelay="12.00" arrival="107.00" arrivalLane="1_E2_0" arrivalPos="192.80" arrivalSpeed="14.85" duration="88.00" routeLength="595.90" waitingTime="11.00" waitingCount="4" stopTime="0.00" timeLoss="48.65" rerouteNo="0" devices="tripinfo_right_42" vType="Car" speedFactor="1.09" vaporized=""/>
    <tripinfo id="right_74" depart="33.00" departLane="S_0_0" departPos="4.10" departSpeed="0.00" departDelay="21.00" arrival="107.00" arrivalLane="0_N_0" arrivalPos="192.80" arrivalSpeed="12.87" duration="74.00" routeLength="395.90" waitingTime="12.00" waitingCount="4" stopTime="0.00" timeLoss="43.72" rerouteNo="0" devices="tripinfo_right_74" vType="Car" speedFactor="0.96" vaporized=""/>
    <tripinfo id="right_69" depart="31.00" departLane="N_0_0" departPos="4.10" departSpeed="0.00" departDelay="20.00" arrival="112.00" arrivalLane="0_S_0" arrivalPos="192.80" arrivalSpeed="13.89" duration="81.00" routeLength="395.90" waitingTime="15.00" waitingCount="6" stopTime="0.00" timeLoss="52.76" rerouteNo="0" devices="tripinfo_right_69" vType="Car" speedFactor="1.02" vaporized=""/>
    <tripinfo id="right_48" depart="22.00" departLane="W_0_0" departPos="4.10" departSpeed="0.00" departDelay="14.00" arrival="113.00" arrivalLane="1_E2_0" arrivalPos="192.80" arrivalSpeed="12.09" duration="91.00" routeLength="595.90" waitingTime="8.00" waitingCount="3" stopTime="0.00" timeLoss="41.56" rerouteNo="0" devices="tripinfo_right_48" vType="Car" speedFactor="0.88" vaporized=""/>
    <tripinfo id="right_54" depart="25.00" departLane="W_0_0" departPos="4.10" departSpeed="0.00" departDelay="16.00" arrival="115.00" arrivalLane="1_E2_0" arrivalPos="192.80" arrivalSpeed="13.62" duration="90.00" routeLength="595.90" waitingTime="9.00" waitingCount="3" stopTime="0.00" timeLoss="47.00" rerouteNo="0" devices="tripinfo_right_54" vType="Car" speedFactor="1.00" vaporized=""/>
    <tripinfo id="right_49" depart="23.00" departLane="E2_1_0" departPos="4.10" departSpeed="0.00" departDelay="15.00" arrival="118.00" arrivalLane="0_W_0" arrivalPos="192.80" arrivalSpeed="10.88" duration="95.00" routeLength="595.90" waitingTime="12.00" waitingCount="4" stopTime="0.00" timeLoss="43.97" rerouteNo="0" devices="tripinfo_right_49" vType="Car" speedFactor="0.85" vaporized=""/>
    <tripinfo id="right_80" depart="36.00" departLane="S_0_0" departPos="4.10" departSpeed="0.00" departDelay="23.00" arrival="118.00" arrivalLane="0_N_0" arrivalPos="192.80" arrivalSpeed="13.72" duration="82.00" routeLength="395.90" waitingTime="13.00" waitingCount="5" stopTime="0.00" timeLoss="54.00" rerouteNo="0" devices="tripinfo_right_80" vType="Car" speedFactor="1.03" vaporized=""/>
    <tripinfo id="right_46" depart="20.00" departLane="S2_1_0" departPos="4.10" departSpeed="0.00" departDelay="13.00" arrival="119.00" arrivalLane="1_N2_0" arrivalPos="192.80" arrivalSpeed="13.70" duration="99.00" routeLength="395.90" waitingTime="31.00" waitingCount="5" stopTime="0.00" timeLoss="69.49" rerouteNo="0" devices="tripinfo_right_46" vType="Car" speedFactor="1.00" vaporized=""/>
    <tripinfo id="right_47" depart="19.00" departLane="N2_1_0" departPos="4.10" departSpeed="0.00" departDelay="12.00" arrival="120.00" arrivalLane="1_S2_0" arrivalPos="192.80" arrivalSpeed="12.38" duration="101.00" routeLength="395.90" waitingTime="29.00" waitingCount="3" stopTime="0.00" timeLoss="69.12" rerouteNo="0" devices="tripinfo_right_47" vType="Car" speedFactor="0.90" vaporized=""/>
    <tripinfo id="right_52" depart="23.00" departLane="S2_1_0" departPos="4.10" departSpeed="0.00" departDelay="15.00" arrival="122.00" arrivalLane="1_N2_0" arrivalPos="192.80" arrivalSpeed="13.92" duration="99.00" routeLength="395.90" waitingTime="27.00" waitingCount="3" stopTime="0.00" timeLoss="70.44" rerouteNo="0" devices="tripinfo_right_52" vType="Car" speedFactor="1.02" vaporized=""/>
    <tripinfo id="right_53" depart="22.00" departLane="N2_1_0" departPos="4.10" departSpeed="0.00" departDelay="14.00" arrival="122.00" arrivalLane="1_S2_0" arrivalPos="192.80" arrivalSpeed="14.56" duration="100.00" routeLength="395.90" waitingTime="30.00" waitingCount="4" stopTime="0.00" timeLoss="73.33" rerouteNo="0" devices="tripinfo_right_53" vType="Car" speedFactor="1.10" vaporized=""/>
    <tripinfo id="right_75" depart="34.00" departLane="N_0_0" departPos="4.10" departSpeed="0.00" departDelay="22.00" arrival="125.00" arrivalLane="0_S_0" arrivalPos="192.80" arrivalSpeed="12.87" duration="91.00" routeLength="395.90" waitingTime="19.00" waitingCount="7" stopTime="0.00" timeLoss="61.53" rerouteNo="0" devices="tripinfo_right_75" vType="Car" speedFactor="0.98" vaporized=""/>
    <tripinfo id="right_55" depart="26.00" departLane="E2_1_0" departPos="4.10" departSpeed="0.00" departDelay="17.00" arrival="127.00" arrivalLane="0_W_0" arrivalPos="192.80" arrivalSpeed="13.32" duration="101.00" routeLength="595.90" waitingTime="19.00" waitingCount="7" stopTime="0.00" timeLoss="57.66" rerouteNo="0" devices="tripinfo_right_55" vType="Car" speedFactor="1.00" vaporized=""/>
    <tripinfo id="right_60" depart="28.00" departLane="W_0_0" departPos="4.10" departSpeed="0.00" departDelay="18.00" arrival="127.00" arrivalLane="1_E2_0" arrivalPos="192.80" arrivalSpeed="14.85" duration="99.00" routeLength="595.90" waitingTime="15.00" waitingCount="4" stopTime="0.00" timeLoss="58.93" rerouteNo="0" devices="tripinfo_right_60" vType="Car" speedFactor="1.08" vaporized=""/>
    <tripinfo id="right_66" depart="31.00" departLane="W_0_0" departPos="4.10" departSpeed="0.00" departDelay="20.00" arrival="131.00" arrivalLane="1_E2_0" arrivalPos="192.80" arrivalSpeed="12.22" duration="100.00" routeLength="595.90" waitingTime="11.00" waitingCount="5" stopTime="0.00" timeLoss="52.17" rerouteNo="0" devices="tripinfo_right_66" vType="Car" speedFactor="0.91" vaporized=""/>
    <tripinfo id="right_81" depart="36.00" departLane="N_0_0" departPos="4.10" departSpeed="0.00" departDelay="23.00" arrival="131.00" arrivalLane="0_S_0" arrivalPos="192.80" arrivalSpeed="13.02" duration="95.00" routeLength="395.90" waitingTime="17.00" waitingCount="7" stopTime="0.00" timeLoss="65.58" rerouteNo="0" devices="tripinfo_right_81" vType="Car" speedFactor="1.00" vaporized=""/>
    <tripinfo id="right_86" depart="38.00" departLane="S_0_0" departPos="4.10" departSpeed="0.00" departDelay="24.00" arrival="132.00" arrivalLane="0_N_0" arrivalPos="192.80" arrivalSpeed="13.46" duration="94.00" routeLength="395.90" waitingTime="19.00" waitingCount="4" stopTime="0.00" timeLoss="64.61" rerouteNo="0" devices="tripinfo_right_86" vType="Car" speedFactor="1.00" vaporized=""/>
    <tripinfo id="right_72" depart="33.00" departLane="W_0_0" departPos="4.10" departSpeed="0.00" departDelay="21.00" arrival="133.00" arrivalLane="1_E2_0" arrivalPos="192.80" arrivalSpeed="12.20" duration="100.00" routeLength="595.90" waitingTime="5.00" waitingCount="3" stopTime="0.00" timeLoss="53.51" rerouteNo="0" devices="tripinfo_right_72" vType="Car" speedFactor="0.94" vaporized=""/>
    <tripinfo id="right_61" depart="28.00" departLane="E2_1_0" departPos="4.10" departSpeed="0.00" departDelay="18.00" arrival="134.00" arrivalLane="0_W_0" arrivalPos="192.80" arrivalSpeed="15.41" duration="106.00" routeLength="595.90" waitingTime="15.00" waitingCount="7" stopTime="0.00" timeLoss="67.67" rerouteNo="0" devices="tripinfo_right_61" vType="Car" speedFactor="1.12" vaporized=""/>
    <tripinfo id="right_58" depart="26.00" departLane="S2_1_0" departPos="4.10" departSpeed="0.00" departDelay="17.00" arrival="135.00" arrivalLane="1_N2_0" arrivalPos="192.80" arrivalSpeed="14.08" duration="109.00" routeLength="395.90" waitingTime="33.00" waitingCount="5" stopTime="0.00" timeLoss="80.19" rerouteNo="0" devices="tripinfo_right_58" vType="Car" speedFactor="1.02" vaporized=""/>
    <tripinfo id="right_59" depart="25.00" departLane="N2_1_0" departPos="4.10" departSpeed="0.00" departDelay="16.00" arrival="135.00" arrivalLane="1_S2_0" arrivalPos="192.80" arrivalSpeed="13.19" duration="110.00" routeLength="395.90" waitingTime="35.00" waitingCount="4" stopTime="0.00" timeLoss="80.20" rerouteNo="0" devices="tripinfo_right_59" vType="Car" speedFactor="0.97" vaporized=""/>