<?xml version="1.0" encoding="UTF-8"?>

<!-- generated on 09/21/20 19:53:53 by Eclipse SUMO Version 1.6.0
<configuration xmlns:xsi="http://www.w3.org/2001/XMLSchema-instance" xsi:noNamespaceSchemaLocation="http://sumo.dlr.de/xsd/sumoConfiguration.xsd">

    <input>
        <net-file value="C:\Users\Konrad\Desktop\Materialy_studia\Inz_Materialy\RL_Traffic\cfg\Intersection.net.xml"/>
        <route-files value="C:\Users\Konrad\Desktop\Materialy_studia\Inz_Materialy\RL_Traffic\cfg\Intersection.rou.xml"/>
        <additional-files value="C:\Users\Konrad\Desktop\Materialy_studia\Inz_Materialy\RL_Traffic\cfg\Intersection.add.xml"/>
    </input>

    <output>
        <tripinfo-output value="C:\Users\Konrad\Desktop\Materialy_studia\Inz_Materialy\RL_Traffic\cfg\tripinfo.xml"/>
    </output>

    <processing>
        <tls.actuated.show-detectors value="true"/>
    </processing>

    <traci_server>
        <remote-port value="58534"/>
    </traci_server>

</configuration>
-->

<tripinfos xmlns:xsi="http://www.w3.org/2001/XMLSchema-instance" xsi:noNamespaceSchemaLocation="http://sumo.dlr.de/xsd/tripinfo_file.xsd">
    <tripinfo id="right_0" depart="0.00" departLane="W_0_0" departPos="4.10" departSpeed="0.00" departDelay="0.00" arrival="32.00" arrivalLane="0_E_0" arrivalPos="192.80" arrivalSpeed="14.72" duration="32.00" routeLength="395.90" waitingTime="0.00" waitingCount="0" stopTime="0.00" timeLoss="4.29" rerouteNo="0" devices="tripinfo_right_0" vType="Car" speedFactor="1.06" vaporized=""/>
    <tripinfo id="right_1" depart="2.00" departLane="W_0_0" departPos="4.10" departSpeed="0.00" departDelay="1.00" arrival="38.00" arrivalLane="0_E_0" arrivalPos="192.80" arrivalSpeed="12.32" duration="36.00" routeLength="395.90" waitingTime="0.00" waitingCount="0" stopTime="0.00" timeLoss="4.81" rerouteNo="0" devices="tripinfo_right_1" vType="Car" speedFactor="0.94" vaporized=""/>
    <tripinfo id="right_2" depart="6.00" departLane="W_0_0" departPos="4.10" departSpeed="0.00" departDelay="4.00" arrival="47.00" arrivalLane="0_E_0" arrivalPos="192.80" arrivalSpeed="13.54" duration="41.00" routeLength="395.90" waitingTime="3.00" waitingCount="1" stopTime="0.00" timeLoss="11.87" rerouteNo="0" devices="tripinfo_right_2" vType="Car" speedFactor="1.01" vaporized=""/>
    <tripinfo id="right_3" depart="8.00" departLane="W_0_0" departPos="4.10" departSpeed="0.00" departDelay="5.00" arrival="48.00" arrivalLane="0_E_0" arrivalPos="192.80" arrivalSpeed="14.06" duration="40.00" routeLength="395.90" waitingTime="2.00" waitingCount="1" stopTime="0.00" timeLoss="13.38" rerouteNo="0" devices="tripinfo_right_3" vType="Car" speedFactor="1.08" vaporized=""/>
    <tripinfo id="right_4" depart="11.00" departLane="W_0_0" departPos="4.10" departSpeed="0.00" departDelay="7.00" arrival="50.00" arrivalLane="0_E_0" arrivalPos="192.80" arrivalSpeed="14.00" duration="39.00" routeLength="395.90" waitingTime="0.00" waitingCount="0" stopTime="0.00" timeLoss="10.83" rerouteNo="0" devices="tripinfo_right_4" vType="Car" speedFactor="1.03" vaporized=""/>
    <tripinfo id="right_5" depart="14.00" departLane="W_0_0" departPos="4.10" departSpeed="0.00" departDelay="9.00" arrival="60.00" arrivalLane="0_E_0" arrivalPos="192.80" arrivalSpeed="10.83" duration="46.00" routeLength="395.90" waitingTime="0.00" waitingCount="0" stopTime="0.00" timeLoss="10.92" rerouteNo="0" devices="tripinfo_right_5" vType="Car" speedFactor="0.83" vaporized=""/>
    <tripinfo id="right_6" depart="17.00" departLane="W_0_0" departPos="4.10" departSpeed="0.00" departDelay="11.00" arrival="61.00" arrivalLane="0_E_0" arrivalPos="192.80" arrivalSpeed="13.03" duration="44.00" routeLength="395.90" waitingTime="0.00" waitingCount="0" stopTime="0.00" timeLoss="16.59" rerouteNo="0" devices="tripinfo_right_6" vType="Car" speedFactor="1.05" vaporized=""/>
    <tripinfo id="right_7" depart="19.00" departLane="W_0_0" departPos="4.10" departSpeed="0.00" departDelay="12.00" arrival="63.00" arrivalLane="0_E_0" arrivalPos="192.80" arrivalSpeed="11.59" duration="44.00" routeLength="395.90" waitingTime="0.00" waitingCount="0" stopTime="0.00" timeLoss="11.42" rerouteNo="0" devices="tripinfo_right_7" vType="Car" speedFactor="0.89" vaporized=""/>
    <tripinfo id="right_8" depart="23.00" departLane="W_0_0" departPos="4.10" departSpeed="0.00" departDelay="15.00" arrival="65.00" arrivalLane="0_E_0" arrivalPos="192.80" arrivalSpeed="12.85" duration="42.00" routeLength="395.90" waitingTime="0.00" waitingCount="0" stopTime="0.00" timeLoss="10.74" rerouteNo="0" devices="tripinfo_right_8" vType="Car" speedFactor="0.94" vaporized=""/>
    <tripinfo id="right_9" depart="26.00" departLane="W_0_0" departPos="4.10" departSpeed="0.00" departDelay="17.00" arrival="67.00" arrivalLane="0_E_0" arrivalPos="192.80" arrivalSpeed="10.99" duration="41.00" routeLength="395.90" waitingTime="0.00" waitingCount="0" stopTime="0.00" timeLoss="6.91" rerouteNo="0" devices="tripinfo_right_9" vType="Car" speedFactor="0.86" vaporized=""/>
    <tripinfo id="right_10" depart="29.00" departLane="W_0_0" departPos="4.10" departSpeed="0.00" departDelay="19.00" arrival="68.00" arrivalLane="0_E_0" arrivalPos="192.80" arrivalSpeed="12.28" duration="39.00" routeLength="395.90" waitingTime="0.00" waitingCount="0" stopTime="0.00" timeLoss="12.67" rerouteNo="0" devices="tripinfo_right_10" vType="Car" speedFactor="1.09" vaporized=""/>
    <tripinfo id="right_11" depart="32.00" departLane="W_0_0" departPos="4.10" departSpeed="0.00" departDelay="21.00" arrival="70.00" arrivalLane="0_E_0" arrivalPos="192.80" arrivalSpeed="14.03" duration="38.00" routeLength="395.90" waitingTime="0.00" waitingCount="0" stopTime="0.00" timeLoss="9.51" rerouteNo="0" devices="tripinfo_right_11" vType="Car" speedFactor="1.03" vaporized=""/>
    <tripinfo id="right_12" depart="35.00" departLane="W_0_0" departPos="4.10" departSpeed="0.00" departDelay="23.00" arrival="77.00" arrivalLane="0_E_0" arrivalPos="192.80" arrivalSpeed="14.29" duration="42.00" routeLength="395.90" waitingTime="4.00" waitingCount="1" stopTime="0.00" timeLoss="14.53" rerouteNo="0" devices="tripinfo_right_12" vType="Car" speedFactor="1.05" vaporized=""/>
    <tripinfo id="right_13" depart="37.00" departLane="W_0_0" departPos="4.10" departSpeed="0.00" departDelay="24.00" arrival="79.00" arrivalLane="0_E_0" arrivalPos="192.80" arrivalSpeed="14.71" duration="42.00" routeLength="395.90" waitingTime="4.00" waitingCount="1" stopTime="0.00" timeLoss="15.91" rerouteNo="0" devices="tripinfo_right_13" vType="Car" speedFactor="1.12" vaporized=""/>
    <tripinfo id="right_14" depart="40.00" departLane="W_0_0" departPos="4.10" departSpeed="0.00" departDelay="26.00" arrival="82.00" arrivalLane="0_E_0" arrivalPos="192.80" arrivalSpeed="13.09" duration="42.00" routeLength="395.90" waitingTime="3.00" waitingCount="1" stopTime="0.00" timeLoss="12.37" rerouteNo="0" devices="tripinfo_right_14" vType="Car" speedFactor="0.99" vaporized=""/>
    <tripinfo id="right_15" depart="43.00" departLane="W_0_0" departPos="4.10" departSpeed="0.00" departDelay="28.00" arrival="94.00" arrivalLane="0_E_0" arrivalPos="192.80" arrivalSpeed="12.38" duration="51.00" routeLength="395.90" waitingTime="6.00" waitingCount="1" stopTime="0.00" timeLoss="19.52" rerouteNo="0" devices="tripinfo_right_15" vType="Car" speedFactor="0.93" vaporized=""/>
    <tripinfo id="right_16" depart="46.00" departLane="W_0_0" departPos="4.10" departSpeed="0.00" departDelay="30.00" arrival="99.00" arrivalLane="0_E_0" arrivalPos="192.80" arrivalSpeed="11.79" duration="53.00" routeLength="395.90" waitingTime="5.00" waitingCount="1" stopTime="0.00" timeLoss="19.80" rerouteNo="0" devices="tripinfo_right_16" vType="Car" speedFactor="0.88" vaporized=""/>
</tripinfos>
