<?xml version="1.0" encoding="UTF-8"?>

<!-- generated on 09/14/20 21:59:33 by Eclipse SUMO Version 1.6.0
<configuration xmlns:xsi="http://www.w3.org/2001/XMLSchema-instance" xsi:noNamespaceSchemaLocation="http://sumo.dlr.de/xsd/sumoConfiguration.xsd">

    <input>
        <net-file value="C:\Users\Konrad\Desktop\Materialy_studia\Inz_Materialy\RL_Traffic\cfg\Intersection.net.xml"/>
        <route-files value="C:\Users\Konrad\Desktop\Materialy_studia\Inz_Materialy\RL_Traffic\cfg\Intersection.rou.xml"/>
        <additional-files value="C:\Users\Konrad\Desktop\Materialy_studia\Inz_Materialy\RL_Traffic\cfg\Intersection.add.xml"/>
    </input>

    <output>
        <tripinfo-output value="C:\Users\Konrad\Desktop\Materialy_studia\Inz_Materialy\RL_Traffic\cfg\tripinfo.xml"/>
    </output>

    <processing>
        <tls.actuated.show-detectors value="true"/>
    </processing>

    <traci_server>
        <remote-port value="62951"/>
    </traci_server>

</configuration>
-->

<tripinfos xmlns:xsi="http://www.w3.org/2001/XMLSchema-instance" xsi:noNamespaceSchemaLocation="http://sumo.dlr.de/xsd/tripinfo_file.xsd">
    <tripinfo id="right_0" depart="0.00" departLane="W_0_0" departPos="4.10" departSpeed="0.00" departDelay="0.00" arrival="37.00" arrivalLane="0_E_0" arrivalPos="192.80" arrivalSpeed="13.85" duration="37.00" routeLength="395.90" waitingTime="0.00" waitingCount="0" stopTime="0.00" timeLoss="9.40" rerouteNo="0" devices="tripinfo_right_0" vType="Car" speedFactor="1.06" vaporized=""/>
    <tripinfo id="right_1" depart="2.00" departLane="W_0_0" departPos="4.10" departSpeed="0.00" departDelay="1.00" arrival="40.00" arrivalLane="0_E_0" arrivalPos="192.80" arrivalSpeed="12.26" duration="38.00" routeLength="395.90" waitingTime="0.00" waitingCount="0" stopTime="0.00" timeLoss="7.27" rerouteNo="0" devices="tripinfo_right_1" vType="Car" speedFactor="0.94" vaporized=""/>
    <tripinfo id="right_2" depart="6.00" departLane="W_0_0" departPos="4.10" departSpeed="0.00" departDelay="4.00" arrival="42.00" arrivalLane="0_E_0" arrivalPos="192.80" arrivalSpeed="13.60" duration="36.00" routeLength="395.90" waitingTime="0.00" waitingCount="0" stopTime="0.00" timeLoss="6.97" rerouteNo="0" devices="tripinfo_right_2" vType="Car" speedFactor="1.01" vaporized=""/>
    <tripinfo id="right_3" depart="8.00" departLane="W_0_0" departPos="4.10" departSpeed="0.00" departDelay="5.00" arrival="43.00" arrivalLane="0_E_0" arrivalPos="192.80" arrivalSpeed="14.70" duration="35.00" routeLength="395.90" waitingTime="0.00" waitingCount="0" stopTime="0.00" timeLoss="8.43" rerouteNo="0" devices="tripinfo_right_3" vType="Car" speedFactor="1.08" vaporized=""/>
    <tripinfo id="right_4" depart="11.00" departLane="W_0_0" departPos="4.10" departSpeed="0.00" departDelay="7.00" arrival="45.00" arrivalLane="0_E_0" arrivalPos="192.80" arrivalSpeed="13.41" duration="34.00" routeLength="395.90" waitingTime="0.00" waitingCount="0" stopTime="0.00" timeLoss="5.73" rerouteNo="0" devices="tripinfo_right_4" vType="Car" speedFactor="1.03" vaporized=""/>
    <tripinfo id="right_5" depart="14.00" departLane="W_0_0" departPos="4.10" departSpeed="0.00" departDelay="9.00" arrival="53.00" arrivalLane="0_E_0" arrivalPos="192.80" arrivalSpeed="10.57" duration="39.00" routeLength="395.90" waitingTime="0.00" waitingCount="0" stopTime="0.00" timeLoss="4.21" rerouteNo="0" devices="tripinfo_right_5" vType="Car" speedFactor="0.83" vaporized=""/>
    <tripinfo id="right_6" depart="17.00" departLane="W_0_0" departPos="4.10" departSpeed="0.00" departDelay="11.00" arrival="54.00" arrivalLane="0_E_0" arrivalPos="192.80" arrivalSpeed="14.23" duration="37.00" routeLength="395.90" waitingTime="0.00" waitingCount="0" stopTime="0.00" timeLoss="9.63" rerouteNo="0" devices="tripinfo_right_6" vType="Car" speedFactor="1.05" vaporized=""/>
    <tripinfo id="right_7" depart="20.00" departLane="W_0_0" departPos="4.10" departSpeed="0.00" departDelay="13.00" arrival="57.00" arrivalLane="0_E_0" arrivalPos="192.80" arrivalSpeed="11.59" duration="37.00" routeLength="395.90" waitingTime="0.00" waitingCount="0" stopTime="0.00" timeLoss="3.96" rerouteNo="0" devices="tripinfo_right_7" vType="Car" speedFactor="0.89" vaporized=""/>
    <tripinfo id="right_8" depart="22.00" departLane="W_0_0" departPos="4.10" departSpeed="0.00" departDelay="14.00" arrival="58.00" arrivalLane="0_E_0" arrivalPos="192.80" arrivalSpeed="12.78" duration="36.00" routeLength="395.90" waitingTime="0.00" waitingCount="0" stopTime="0.00" timeLoss="5.31" rerouteNo="0" devices="tripinfo_right_8" vType="Car" speedFactor="0.94" vaporized=""/>
    <tripinfo id="right_9" depart="25.00" departLane="W_0_0" departPos="4.10" departSpeed="0.00" departDelay="16.00" arrival="63.00" arrivalLane="0_E_0" arrivalPos="192.80" arrivalSpeed="11.83" duration="38.00" routeLength="395.90" waitingTime="0.00" waitingCount="0" stopTime="0.00" timeLoss="4.64" rerouteNo="0" devices="tripinfo_right_9" vType="Car" speedFactor="0.86" vaporized=""/>
    <tripinfo id="right_10" depart="28.00" departLane="W_0_0" departPos="4.10" departSpeed="0.00" departDelay="18.00" arrival="65.00" arrivalLane="0_E_0" arrivalPos="192.80" arrivalSpeed="14.98" duration="37.00" routeLength="395.90" waitingTime="0.00" waitingCount="0" stopTime="0.00" timeLoss="10.16" rerouteNo="0" devices="tripinfo_right_10" vType="Car" speedFactor="1.09" vaporized=""/>
    <tripinfo id="right_11" depart="30.00" departLane="W_0_0" departPos="4.10" departSpeed="0.00" departDelay="19.00" arrival="66.00" arrivalLane="0_E_0" arrivalPos="192.80" arrivalSpeed="13.47" duration="36.00" routeLength="395.90" waitingTime="0.00" waitingCount="0" stopTime="0.00" timeLoss="8.17" rerouteNo="0" devices="tripinfo_right_11" vType="Car" speedFactor="1.03" vaporized=""/>
    <tripinfo id="right_12" depart="33.00" departLane="W_0_0" departPos="4.10" departSpeed="0.00" departDelay="21.00" arrival="68.00" arrivalLane="0_E_0" arrivalPos="192.80" arrivalSpeed="13.66" duration="35.00" routeLength="395.90" waitingTime="0.00" waitingCount="0" stopTime="0.00" timeLoss="7.26" rerouteNo="0" devices="tripinfo_right_12" vType="Car" speedFactor="1.05" vaporized=""/>
    <tripinfo id="right_13" depart="36.00" departLane="W_0_0" departPos="4.10" departSpeed="0.00" departDelay="23.00" arrival="73.00" arrivalLane="0_E_0" arrivalPos="192.80" arrivalSpeed="15.47" duration="37.00" routeLength="395.90" waitingTime="1.00" waitingCount="1" stopTime="0.00" timeLoss="10.73" rerouteNo="0" devices="tripinfo_right_13" vType="Car" speedFactor="1.12" vaporized=""/>
    <tripinfo id="right_14" depart="39.00" departLane="W_0_0" departPos="4.10" departSpeed="0.00" departDelay="25.00" arrival="76.00" arrivalLane="0_E_0" arrivalPos="192.80" arrivalSpeed="13.55" duration="37.00" routeLength="395.90" waitingTime="0.00" waitingCount="0" stopTime="0.00" timeLoss="7.31" rerouteNo="0" devices="tripinfo_right_14" vType="Car" speedFactor="0.99" vaporized=""/>
    <tripinfo id="right_15" depart="42.00" departLane="W_0_0" departPos="4.10" departSpeed="0.00" departDelay="27.00" arrival="78.00" arrivalLane="0_E_0" arrivalPos="192.80" arrivalSpeed="12.42" duration="36.00" routeLength="395.90" waitingTime="0.00" waitingCount="0" stopTime="0.00" timeLoss="5.12" rerouteNo="0" devices="tripinfo_right_15" vType="Car" speedFactor="0.93" vaporized=""/>
    <tripinfo id="right_16" depart="44.00" departLane="W_0_0" departPos="4.10" departSpeed="0.00" departDelay="28.00" arrival="81.00" arrivalLane="0_E_0" arrivalPos="192.80" arrivalSpeed="11.41" duration="37.00" routeLength="395.90" waitingTime="0.00" waitingCount="0" stopTime="0.00" timeLoss="4.23" rerouteNo="0" devices="tripinfo_right_16" vType="Car" speedFactor="0.88" vaporized=""/>
    <tripinfo id="right_17" depart="47.00" departLane="W_0_0" departPos="4.10" departSpeed="0.00" departDelay="30.00" arrival="83.00" arrivalLane="0_E_0" arrivalPos="192.80" arrivalSpeed="12.27" duration="36.00" routeLength="395.90" waitingTime="0.00" waitingCount="0" stopTime="0.00" timeLoss="5.03" rerouteNo="0" devices="tripinfo_right_17" vType="Car" speedFactor="0.94" vaporized=""/>
    <tripinfo id="right_18" depart="50.00" departLane="W_0_0" departPos="4.10" departSpeed="0.00" departDelay="32.00" arrival="85.00" arrivalLane="0_E_0" arrivalPos="192.80" arrivalSpeed="11.99" duration="35.00" routeLength="395.90" waitingTime="0.00" waitingCount="0" stopTime="0.00" timeLoss="3.77" rerouteNo="0" devices="tripinfo_right_18" vType="Car" speedFactor="0.94" vaporized=""/>
    <tripinfo id="right_19" depart="53.00" departLane="W_0_0" departPos="4.10" departSpeed="0.00" departDelay="34.00" arrival="86.00" arrivalLane="0_E_0" arrivalPos="192.80" arrivalSpeed="13.88" duration="33.00" routeLength="395.90" waitingTime="0.00" waitingCount="0" stopTime="0.00" timeLoss="8.14" rerouteNo="0" devices="tripinfo_right_19" vType="Car" speedFactor="1.16" vaporized=""/>
    <tripinfo id="right_20" depart="56.00" departLane="W_0_0" departPos="4.10" departSpeed="0.00" departDelay="36.00" arrival="95.00" arrivalLane="0_E_0" arrivalPos="192.80" arrivalSpeed="13.82" duration="39.00" routeLength="395.90" waitingTime="1.00" waitingCount="1" stopTime="0.00" timeLoss="10.10" rerouteNo="0" devices="tripinfo_right_20" vType="Car" speedFactor="1.02" vaporized=""/>
    <tripinfo id="right_21" depart="58.00" departLane="W_0_0" departPos="4.10" departSpeed="0.00" departDelay="37.00" arrival="96.00" arrivalLane="0_E_0" arrivalPos="192.80" arrivalSpeed="13.22" duration="38.00" routeLength="395.90" waitingTime="0.00" waitingCount="0" stopTime="0.00" timeLoss="9.50" rerouteNo="0" devices="tripinfo_right_21" vType="Car" speedFactor="1.01" vaporized=""/>
    <tripinfo id="right_22" depart="61.00" departLane="W_0_0" departPos="4.10" departSpeed="0.00" departDelay="39.00" arrival="98.00" arrivalLane="0_E_0" arrivalPos="192.80" arrivalSpeed="13.17" duration="37.00" routeLength="395.90" waitingTime="0.00" waitingCount="0" stopTime="0.00" timeLoss="7.74" rerouteNo="0" devices="tripinfo_right_22" vType="Car" speedFactor="0.98" vaporized=""/>
</tripinfos>
