<?xml version="1.0" encoding="UTF-8"?>

<!-- generated on 12/03/20 23:46:24 by Eclipse SUMO GUI Version 1.6.0
<configuration xmlns:xsi="http://www.w3.org/2001/XMLSchema-instance" xsi:noNamespaceSchemaLocation="http://sumo.dlr.de/xsd/sumoConfiguration.xsd">

    <input>
        <net-file value="C:\Users\Konrad\Desktop\Materialy_studia\Inz_Materialy\RL_Traffic\gym_env\envs\cfg_1\Intersection.net.xml"/>
        <route-files value="C:\Users\Konrad\Desktop\Materialy_studia\Inz_Materialy\RL_Traffic\gym_env\envs\cfg_1\Intersection.rou.xml"/>
        <additional-files value="C:\Users\Konrad\Desktop\Materialy_studia\Inz_Materialy\RL_Traffic\gym_env\envs\cfg_1\Intersection.add.xml"/>
    </input>

    <output>
        <tripinfo-output value="C:\Users\Konrad\Desktop\Materialy_studia\Inz_Materialy\RL_Traffic\gym_env\envs\cfg_1\tripinfo.xml"/>
    </output>

    <processing>
        <tls.actuated.show-detectors value="true"/>
    </processing>

    <traci_server>
        <remote-port value="51824"/>
    </traci_server>

    <gui_only>
        <quit-on-end value="true"/>
    </gui_only>

</configuration>
-->

<tripinfos xmlns:xsi="http://www.w3.org/2001/XMLSchema-instance" xsi:noNamespaceSchemaLocation="http://sumo.dlr.de/xsd/tripinfo_file.xsd">
    <tripinfo id="ur_0" depart="5.00" departLane="S_0_0" departPos="4.10" departSpeed="0.00" departDelay="0.00" arrival="49.00" arrivalLane="0_1_0" arrivalPos="192.80" arrivalSpeed="14.30" duration="44.00" routeLength="390.53" waitingTime="6.00" waitingCount="1" stopTime="0.00" timeLoss="16.21" rerouteNo="0" devices="tripinfo_ur_0" vType="Car" speedFactor="1.06" vaporized=""/>
    <tripinfo id="left_1" depart="27.00" departLane="1_0_0" departPos="4.10" departSpeed="0.00" departDelay="0.00" arrival="68.00" arrivalLane="0_W_0" arrivalPos="192.80" arrivalSpeed="12.12" duration="41.00" routeLength="395.90" waitingTime="1.00" waitingCount="1" stopTime="0.00" timeLoss="9.78" rerouteNo="0" devices="tripinfo_left_1" vType="Car" speedFactor="0.94" vaporized=""/>
    <tripinfo id="up_2" depart="56.00" departLane="S_0_0" departPos="4.10" departSpeed="0.00" departDelay="0.00" arrival="89.00" arrivalLane="0_N_0" arrivalPos="192.80" arrivalSpeed="13.02" duration="33.00" routeLength="395.90" waitingTime="0.00" waitingCount="0" stopTime="0.00" timeLoss="4.77" rerouteNo="0" devices="tripinfo_up_2" vType="Car" speedFactor="1.01" vaporized=""/>
    <tripinfo id="left_4" depart="63.00" departLane="1_0_0" departPos="4.10" departSpeed="0.00" departDelay="0.00" arrival="95.00" arrivalLane="0_W_0" arrivalPos="192.80" arrivalSpeed="13.95" duration="32.00" routeLength="395.90" waitingTime="0.00" waitingCount="0" stopTime="0.00" timeLoss="3.74" rerouteNo="0" devices="tripinfo_left_4" vType="Car" speedFactor="1.03" vaporized=""/>
    <tripinfo id="up_3" depart="59.00" departLane="S_0_0" departPos="4.10" departSpeed="0.00" departDelay="0.00" arrival="102.00" arrivalLane="0_N_0" arrivalPos="192.80" arrivalSpeed="14.11" duration="43.00" routeLength="395.90" waitingTime="6.00" waitingCount="1" stopTime="0.00" timeLoss="16.01" rerouteNo="0" devices="tripinfo_up_3" vType="Car" speedFactor="1.08" vaporized=""/>
    <tripinfo id="rd_6" depart="68.00" departLane="W_0_0" departPos="4.10" departSpeed="0.00" departDelay="0.00" arrival="106.00" arrivalLane="0_S_0" arrivalPos="192.80" arrivalSpeed="14.51" duration="38.00" routeLength="390.53" waitingTime="2.00" waitingCount="1" stopTime="0.00" timeLoss="9.92" rerouteNo="0" devices="tripinfo_rd_6" vType="Car" speedFactor="1.05" vaporized=""/>
    <tripinfo id="right_7" depart="70.00" departLane="W_0_0" departPos="4.10" departSpeed="0.00" departDelay="1.00" arrival="110.00" arrivalLane="0_1_0" arrivalPos="192.80" arrivalSpeed="12.10" duration="40.00" routeLength="395.90" waitingTime="0.00" waitingCount="0" stopTime="0.00" timeLoss="7.33" rerouteNo="0" devices="tripinfo_right_7" vType="Car" speedFactor="0.89" vaporized=""/>
    <tripinfo id="down_8" depart="70.00" departLane="N_0_0" departPos="4.10" departSpeed="0.00" departDelay="0.00" arrival="116.00" arrivalLane="0_S_0" arrivalPos="192.80" arrivalSpeed="13.01" duration="46.00" routeLength="395.90" waitingTime="7.00" waitingCount="1" stopTime="0.00" timeLoss="14.71" rerouteNo="0" devices="tripinfo_down_8" vType="Car" speedFactor="0.94" vaporized=""/>
    <tripinfo id="left_11" depart="83.00" departLane="1_0_0" departPos="4.10" departSpeed="0.00" departDelay="0.00" arrival="117.00" arrivalLane="0_W_0" arrivalPos="192.80" arrivalSpeed="13.49" duration="34.00" routeLength="395.90" waitingTime="0.00" waitingCount="0" stopTime="0.00" timeLoss="5.43" rerouteNo="0" devices="tripinfo_left_11" vType="Car" speedFactor="1.03" vaporized=""/>
    <tripinfo id="up_5" depart="68.00" departLane="S_0_0" departPos="4.10" departSpeed="0.00" departDelay="0.00" arrival="118.00" arrivalLane="0_N_0" arrivalPos="192.80" arrivalSpeed="11.49" duration="50.00" routeLength="395.90" waitingTime="7.00" waitingCount="1" stopTime="0.00" timeLoss="14.91" rerouteNo="0" devices="tripinfo_up_5" vType="Car" speedFactor="0.83" vaporized=""/>
    <tripinfo id="right_9" depart="74.00" departLane="W_0_0" departPos="4.10" departSpeed="0.00" departDelay="3.00" arrival="121.00" arrivalLane="0_1_0" arrivalPos="192.80" arrivalSpeed="11.04" duration="47.00" routeLength="395.90" waitingTime="5.00" waitingCount="1" stopTime="0.00" timeLoss="13.24" rerouteNo="0" devices="tripinfo_right_9" vType="Car" speedFactor="0.86" vaporized=""/>
    <tripinfo id="down_10" depart="81.00" departLane="N_0_0" departPos="4.10" departSpeed="0.00" departDelay="0.00" arrival="123.00" arrivalLane="0_S_0" arrivalPos="192.80" arrivalSpeed="14.75" duration="42.00" routeLength="395.90" waitingTime="5.00" waitingCount="1" stopTime="0.00" timeLoss="15.49" rerouteNo="0" devices="tripinfo_down_10" vType="Car" speedFactor="1.09" vaporized=""/>
    <tripinfo id="dl_12" depart="85.00" departLane="N_0_0" departPos="4.10" departSpeed="0.00" departDelay="0.00" arrival="134.00" arrivalLane="0_W_0" arrivalPos="192.80" arrivalSpeed="13.53" duration="49.00" routeLength="390.53" waitingTime="9.00" waitingCount="2" stopTime="0.00" timeLoss="21.39" rerouteNo="0" devices="tripinfo_dl_12" vType="Car" speedFactor="1.05" vaporized=""/>
    <tripinfo id="left_13" depart="100.00" departLane="1_0_0" departPos="4.10" departSpeed="0.00" departDelay="0.00" arrival="137.00" arrivalLane="0_W_0" arrivalPos="192.80" arrivalSpeed="15.18" duration="37.00" routeLength="395.90" waitingTime="2.00" waitingCount="1" stopTime="0.00" timeLoss="11.37" rerouteNo="0" devices="tripinfo_left_13" vType="Car" speedFactor="1.12" vaporized=""/>
    <tripinfo id="left_14" depart="107.00" departLane="1_0_0" departPos="4.10" departSpeed="0.00" departDelay="0.00" arrival="141.00" arrivalLane="0_W_0" arrivalPos="192.80" arrivalSpeed="13.51" duration="34.00" routeLength="395.90" waitingTime="0.00" waitingCount="0" stopTime="0.00" timeLoss="4.43" rerouteNo="0" devices="tripinfo_left_14" vType="Car" speedFactor="0.99" vaporized=""/>
    <tripinfo id="ur_15" depart="113.00" departLane="S_0_0" departPos="4.10" departSpeed="0.00" departDelay="0.00" arrival="154.00" arrivalLane="0_1_0" arrivalPos="192.80" arrivalSpeed="12.50" duration="41.00" routeLength="390.53" waitingTime="1.00" waitingCount="1" stopTime="0.00" timeLoss="9.27" rerouteNo="0" devices="tripinfo_ur_15" vType="Car" speedFactor="0.93" vaporized=""/>
    <tripinfo id="right_17" depart="124.00" departLane="W_0_0" departPos="4.10" departSpeed="0.00" departDelay="0.00" arrival="158.00" arrivalLane="0_1_0" arrivalPos="192.80" arrivalSpeed="12.64" duration="34.00" routeLength="395.90" waitingTime="0.00" waitingCount="0" stopTime="0.00" timeLoss="3.66" rerouteNo="0" devices="tripinfo_right_17" vType="Car" speedFactor="0.94" vaporized=""/>
    <tripinfo id="rd_18" depart="131.00" departLane="W_0_0" departPos="4.10" departSpeed="0.00" departDelay="0.00" arrival="167.00" arrivalLane="0_S_0" arrivalPos="192.80" arrivalSpeed="12.38" duration="36.00" routeLength="390.53" waitingTime="0.00" waitingCount="0" stopTime="0.00" timeLoss="5.35" rerouteNo="0" devices="tripinfo_rd_18" vType="Car" speedFactor="0.94" vaporized=""/>
    <tripinfo id="down_21" depart="131.00" departLane="N_0_0" departPos="4.10" departSpeed="0.00" departDelay="0.00" arrival="169.00" arrivalLane="0_S_0" arrivalPos="192.80" arrivalSpeed="13.99" duration="38.00" routeLength="395.90" waitingTime="1.00" waitingCount="1" stopTime="0.00" timeLoss="9.76" rerouteNo="0" devices="tripinfo_down_21" vType="Car" speedFactor="1.01" vaporized=""/>
    <tripinfo id="up_16" depart="117.00" departLane="S_0_0" departPos="4.10" departSpeed="0.00" departDelay="0.00" arrival="172.00" arrivalLane="0_N_0" arrivalPos="192.80" arrivalSpeed="11.56" duration="55.00" routeLength="395.90" waitingTime="12.00" waitingCount="1" stopTime="0.00" timeLoss="22.05" rerouteNo="0" devices="tripinfo_up_16" vType="Car" speedFactor="0.88" vaporized=""/>
    <tripinfo id="right_19" depart="134.00" departLane="W_0_0" departPos="4.10" departSpeed="0.00" departDelay="3.00" arrival="172.00" arrivalLane="0_1_0" arrivalPos="192.80" arrivalSpeed="15.67" duration="38.00" routeLength="395.90" waitingTime="2.00" waitingCount="1" stopTime="0.00" timeLoss="13.12" rerouteNo="0" devices="tripinfo_right_19" vType="Car" speedFactor="1.16" vaporized=""/>
    <tripinfo id="left_22" depart="135.00" departLane="1_0_0" departPos="4.10" departSpeed="0.00" departDelay="0.00" arrival="174.00" arrivalLane="0_W_0" arrivalPos="192.80" arrivalSpeed="13.36" duration="39.00" routeLength="395.90" waitingTime="0.00" waitingCount="0" stopTime="0.00" timeLoss="9.27" rerouteNo="0" devices="tripinfo_left_22" vType="Car" speedFactor="0.98" vaporized=""/>
    <tripinfo id="right_20" depart="137.00" departLane="W_0_0" departPos="4.10" departSpeed="0.00" departDelay="6.00" arrival="176.00" arrivalLane="0_1_0" arrivalPos="192.80" arrivalSpeed="13.41" duration="39.00" routeLength="395.90" waitingTime="0.00" waitingCount="0" stopTime="0.00" timeLoss="10.10" rerouteNo="0" devices="tripinfo_right_20" vType="Car" speedFactor="1.02" vaporized=""/>
    <tripinfo id="rd_23" depart="140.00" departLane="W_0_0" departPos="4.10" departSpeed="0.00" departDelay="3.00" arrival="180.00" arrivalLane="0_S_0" arrivalPos="192.80" arrivalSpeed="12.15" duration="40.00" routeLength="390.53" waitingTime="0.00" waitingCount="0" stopTime="0.00" timeLoss="7.51" rerouteNo="0" devices="tripinfo_rd_23" vType="Car" speedFactor="0.89" vaporized=""/>
    <tripinfo id="up_24" depart="149.00" departLane="S_0_0" departPos="4.10" departSpeed="0.00" departDelay="0.00" arrival="188.00" arrivalLane="0_N_0" arrivalPos="192.80" arrivalSpeed="11.08" duration="39.00" routeLength="395.90" waitingTime="0.00" waitingCount="0" stopTime="0.00" timeLoss="3.64" rerouteNo="0" devices="tripinfo_up_24" vType="Car" speedFactor="0.83" vaporized=""/>
    <tripinfo id="left_25" depart="156.00" departLane="1_0_0" departPos="4.10" departSpeed="0.00" departDelay="0.00" arrival="193.00" arrivalLane="0_W_0" arrivalPos="192.80" arrivalSpeed="11.68" duration="37.00" routeLength="395.90" waitingTime="0.00" waitingCount="0" stopTime="0.00" timeLoss="3.74" rerouteNo="0" devices="tripinfo_left_25" vType="Car" speedFactor="0.87" vaporized=""/>
    <tripinfo id="left_27" depart="164.00" departLane="1_0_0" departPos="4.10" departSpeed="0.00" departDelay="0.00" arrival="199.00" arrivalLane="0_W_0" arrivalPos="192.80" arrivalSpeed="13.02" duration="35.00" routeLength="395.90" waitingTime="0.00" waitingCount="0" stopTime="0.00" timeLoss="4.03" rerouteNo="0" devices="tripinfo_left_27" vType="Car" speedFactor="0.95" vaporized=""/>
    <tripinfo id="ur_26" depart="161.00" departLane="S_0_0" departPos="4.10" departSpeed="0.00" departDelay="0.00" arrival="205.00" arrivalLane="0_1_0" arrivalPos="192.80" arrivalSpeed="12.35" duration="44.00" routeLength="390.53" waitingTime="4.00" waitingCount="1" stopTime="0.00" timeLoss="12.51" rerouteNo="0" devices="tripinfo_ur_26" vType="Car" speedFactor="0.92" vaporized=""/>
    <tripinfo id="right_29" depart="169.00" departLane="W_0_0" departPos="4.10" departSpeed="0.00" departDelay="0.00" arrival="209.00" arrivalLane="0_1_0" arrivalPos="192.80" arrivalSpeed="11.91" duration="40.00" routeLength="395.90" waitingTime="1.00" waitingCount="1" stopTime="0.00" timeLoss="8.55" rerouteNo="0" devices="tripinfo_right_29" vType="Car" speedFactor="0.93" vaporized=""/>
    <tripinfo id="up_28" depart="165.00" departLane="S_0_0" departPos="4.10" departSpeed="0.00" departDelay="0.00" arrival="213.00" arrivalLane="0_N_0" arrivalPos="192.80" arrivalSpeed="14.98" duration="48.00" routeLength="395.90" waitingTime="9.00" waitingCount="2" stopTime="0.00" timeLoss="22.59" rerouteNo="0" devices="tripinfo_up_28" vType="Car" speedFactor="1.13" vaporized=""/>
    <tripinfo id="down_30" depart="175.00" departLane="N_0_0" departPos="4.10" departSpeed="0.00" departDelay="0.00" arrival="213.00" arrivalLane="0_S_0" arrivalPos="192.80" arrivalSpeed="15.54" duration="38.00" routeLength="395.90" waitingTime="4.00" waitingCount="1" stopTime="0.00" timeLoss="13.68" rerouteNo="0" devices="tripinfo_down_30" vType="Car" speedFactor="1.18" vaporized=""/>
    <tripinfo id="right_31" depart="180.00" departLane="W_0_0" departPos="4.10" departSpeed="0.00" departDelay="0.00" arrival="217.00" arrivalLane="0_1_0" arrivalPos="192.80" arrivalSpeed="15.48" duration="37.00" routeLength="395.90" waitingTime="1.00" waitingCount="1" stopTime="0.00" timeLoss="11.96" rerouteNo="0" devices="tripinfo_right_31" vType="Car" speedFactor="1.15" vaporized=""/>
    <tripinfo id="left_33" depart="182.00" departLane="1_0_0" departPos="4.10" departSpeed="0.00" departDelay="0.00" arrival="217.00" arrivalLane="0_W_0" arrivalPos="192.80" arrivalSpeed="15.41" duration="35.00" routeLength="395.90" waitingTime="0.00" waitingCount="0" stopTime="0.00" timeLoss="9.85" rerouteNo="0" devices="tripinfo_left_33" vType="Car" speedFactor="1.17" vaporized=""/>
    <tripinfo id="down_32" depart="182.00" departLane="N_0_0" departPos="4.10" departSpeed="0.00" departDelay="0.00" arrival="226.00" arrivalLane="0_S_0" arrivalPos="192.80" arrivalSpeed="13.95" duration="44.00" routeLength="395.90" waitingTime="6.00" waitingCount="1" stopTime="0.00" timeLoss="14.87" rerouteNo="0" devices="tripinfo_down_32" vType="Car" speedFactor="1.01" vaporized=""/>
    <tripinfo id="ur_34" depart="187.00" departLane="S_0_0" departPos="4.10" departSpeed="0.00" departDelay="0.00" arrival="226.00" arrivalLane="0_1_0" arrivalPos="192.80" arrivalSpeed="13.04" duration="39.00" routeLength="390.53" waitingTime="0.00" waitingCount="0" stopTime="0.00" timeLoss="9.55" rerouteNo="0" devices="tripinfo_ur_34" vType="Car" speedFactor="0.99" vaporized=""/>
    <tripinfo id="right_37" depart="192.00" departLane="W_0_0" departPos="4.10" departSpeed="0.00" departDelay="0.00" arrival="230.00" arrivalLane="0_1_0" arrivalPos="192.80" arrivalSpeed="16.08" duration="38.00" routeLength="395.90" waitingTime="3.00" waitingCount="1" stopTime="0.00" timeLoss="12.87" rerouteNo="0" devices="tripinfo_right_37" vType="Car" speedFactor="1.18" vaporized=""/>
    <tripinfo id="left_35" depart="192.00" departLane="1_0_0" departPos="4.10" departSpeed="0.00" departDelay="0.00" arrival="232.00" arrivalLane="0_W_0" arrivalPos="192.80" arrivalSpeed="14.16" duration="40.00" routeLength="395.90" waitingTime="2.00" waitingCount="1" stopTime="0.00" timeLoss="11.29" rerouteNo="0" devices="tripinfo_left_35" vType="Car" speedFactor="1.02" vaporized=""/>
    <tripinfo id="down_38" depart="194.00" departLane="N_0_0" departPos="4.10" departSpeed="0.00" departDelay="0.00" arrival="235.00" arrivalLane="0_S_0" arrivalPos="192.80" arrivalSpeed="15.26" duration="41.00" routeLength="395.90" waitingTime="5.00" waitingCount="1" stopTime="0.00" timeLoss="14.38" rerouteNo="0" devices="tripinfo_down_38" vType="Car" speedFactor="1.10" vaporized=""/>
    <tripinfo id="up_36" depart="192.00" departLane="S_0_0" departPos="4.10" departSpeed="0.00" departDelay="0.00" arrival="236.00" arrivalLane="0_N_0" arrivalPos="192.80" arrivalSpeed="13.50" duration="44.00" routeLength="395.90" waitingTime="5.00" waitingCount="1" stopTime="0.00" timeLoss="14.18" rerouteNo="0" devices="tripinfo_up_36" vType="Car" speedFactor="0.97" vaporized=""/>
    <tripinfo id="right_40" depart="199.00" departLane="W_0_0" departPos="4.10" departSpeed="0.00" departDelay="0.00" arrival="240.00" arrivalLane="0_1_0" arrivalPos="192.80" arrivalSpeed="13.65" duration="41.00" routeLength="395.90" waitingTime="4.00" waitingCount="1" stopTime="0.00" timeLoss="12.70" rerouteNo="0" devices="tripinfo_right_40" vType="Car" speedFactor="1.03" vaporized=""/>
    <tripinfo id="left_39" depart="195.00" departLane="1_0_0" departPos="4.10" departSpeed="0.00" departDelay="1.00" arrival="242.00" arrivalLane="0_W_0" arrivalPos="192.80" arrivalSpeed="11.87" duration="47.00" routeLength="395.90" waitingTime="3.00" waitingCount="1" stopTime="0.00" timeLoss="14.47" rerouteNo="0" devices="tripinfo_left_39" vType="Car" speedFactor="0.90" vaporized=""/>
    <tripinfo id="up_41" depart="199.00" departLane="S_0_0" departPos="4.10" departSpeed="0.00" departDelay="0.00" arrival="246.00" arrivalLane="0_N_0" arrivalPos="192.80" arrivalSpeed="13.09" duration="47.00" routeLength="395.90" waitingTime="5.00" waitingCount="2" stopTime="0.00" timeLoss="16.38" rerouteNo="0" devices="tripinfo_up_41" vType="Car" speedFactor="0.96" vaporized=""/>
    <tripinfo id="left_44" depart="216.00" departLane="1_0_0" departPos="4.10" departSpeed="0.00" departDelay="0.00" arrival="247.00" arrivalLane="0_W_0" arrivalPos="192.80" arrivalSpeed="13.49" duration="31.00" routeLength="395.90" waitingTime="0.00" waitingCount="0" stopTime="0.00" timeLoss="3.68" rerouteNo="0" devices="tripinfo_left_44" vType="Car" speedFactor="1.04" vaporized=""/>
    <tripinfo id="up_42" depart="206.00" departLane="S_0_0" departPos="4.10" departSpeed="0.00" departDelay="0.00" arrival="252.00" arrivalLane="0_N_0" arrivalPos="192.80" arrivalSpeed="14.42" duration="46.00" routeLength="395.90" waitingTime="6.00" waitingCount="2" stopTime="0.00" timeLoss="18.97" rerouteNo="0" devices="tripinfo_up_42" vType="Car" speedFactor="1.09" vaporized=""/>
    <tripinfo id="down_43" depart="213.00" departLane="N_0_0" departPos="4.10" departSpeed="0.00" departDelay="0.00" arrival="252.00" arrivalLane="0_S_0" arrivalPos="192.80" arrivalSpeed="13.66" duration="39.00" routeLength="395.90" waitingTime="2.00" waitingCount="1" stopTime="0.00" timeLoss="11.16" rerouteNo="0" devices="tripinfo_down_43" vType="Car" speedFactor="1.04" vaporized=""/>
    <tripinfo id="right_45" depart="217.00" departLane="W_0_0" departPos="4.10" departSpeed="0.00" departDelay="0.00" arrival="255.00" arrivalLane="0_1_0" arrivalPos="192.80" arrivalSpeed="14.38" duration="38.00" routeLength="395.90" waitingTime="4.00" waitingCount="1" stopTime="0.00" timeLoss="11.78" rerouteNo="0" devices="tripinfo_right_45" vType="Car" speedFactor="1.09" vaporized=""/>
    <tripinfo id="up_46" depart="227.00" departLane="S_0_0" departPos="4.10" departSpeed="0.00" departDelay="0.00" arrival="260.00" arrivalLane="0_N_0" arrivalPos="192.80" arrivalSpeed="13.53" duration="33.00" routeLength="395.90" waitingTime="0.00" waitingCount="0" stopTime="0.00" timeLoss="4.17" rerouteNo="0" devices="tripinfo_up_46" vType="Car" speedFactor="1.00" vaporized=""/>
    <tripinfo id="down_48" depart="233.00" departLane="N_0_0" departPos="4.10" departSpeed="0.00" departDelay="0.00" arrival="270.00" arrivalLane="0_S_0" arrivalPos="192.80" arrivalSpeed="11.66" duration="37.00" routeLength="395.90" waitingTime="0.00" waitingCount="0" stopTime="0.00" timeLoss="3.85" rerouteNo="0" devices="tripinfo_down_48" vType="Car" speedFactor="0.88" vaporized=""/>
    <tripinfo id="left_49" depart="235.00" departLane="1_0_0" departPos="4.10" departSpeed="0.00" departDelay="0.00" arrival="274.00" arrivalLane="0_W_0" arrivalPos="192.80" arrivalSpeed="11.51" duration="39.00" routeLength="395.90" waitingTime="0.00" waitingCount="0" stopTime="0.00" timeLoss="5.38" rerouteNo="0" devices="tripinfo_left_49" vType="Car" speedFactor="0.85" vaporized=""/>
    <tripinfo id="right_47" depart="232.00" departLane="W_0_0" departPos="4.10" departSpeed="0.00" departDelay="0.00" arrival="275.00" arrivalLane="0_1_0" arrivalPos="192.80" arrivalSpeed="11.62" duration="43.00" routeLength="395.90" waitingTime="4.00" waitingCount="1" stopTime="0.00" timeLoss="11.26" rerouteNo="0" devices="tripinfo_right_47" vType="Car" speedFactor="0.90" vaporized=""/>
    <tripinfo id="down_53" depart="244.00" departLane="N_0_0" departPos="4.10" departSpeed="0.00" departDelay="0.00" arrival="275.00" arrivalLane="0_S_0" arrivalPos="192.80" arrivalSpeed="14.39" duration="31.00" routeLength="395.90" waitingTime="0.00" waitingCount="0" stopTime="0.00" timeLoss="4.96" rerouteNo="0" devices="tripinfo_down_53" vType="Car" speedFactor="1.10" vaporized=""/>
    <tripinfo id="up_51" depart="239.00" departLane="S_0_0" departPos="4.10" departSpeed="0.00" departDelay="0.00" arrival="277.00" arrivalLane="0_N_0" arrivalPos="192.80" arrivalSpeed="15.91" duration="38.00" routeLength="395.90" waitingTime="3.00" waitingCount="1" stopTime="0.00" timeLoss="12.99" rerouteNo="0" devices="tripinfo_up_51" vType="Car" speedFactor="1.17" vaporized=""/>
    <tripinfo id="right_50" depart="238.00" departLane="W_0_0" departPos="4.10" departSpeed="0.00" departDelay="0.00" arrival="285.00" arrivalLane="0_1_0" arrivalPos="192.80" arrivalSpeed="11.47" duration="47.00" routeLength="395.90" waitingTime="5.00" waitingCount="1" stopTime="0.00" timeLoss="13.26" rerouteNo="0" devices="tripinfo_right_50" vType="Car" speedFactor="0.85" vaporized=""/>
    <tripinfo id="up_52" depart="243.00" departLane="S_0_0" departPos="4.10" departSpeed="0.00" departDelay="0.00" arrival="287.00" arrivalLane="0_N_0" arrivalPos="192.80" arrivalSpeed="13.31" duration="44.00" routeLength="395.90" waitingTime="4.00" waitingCount="1" stopTime="0.00" timeLoss="15.77" rerouteNo="0" devices="tripinfo_up_52" vType="Car" speedFactor="1.02" vaporized=""/>
    <tripinfo id="dl_54" depart="253.00" departLane="N_0_0" departPos="4.10" departSpeed="0.00" departDelay="0.00" arrival="287.00" arrivalLane="0_W_0" arrivalPos="192.80" arrivalSpeed="13.00" duration="34.00" routeLength="390.53" waitingTime="0.00" waitingCount="0" stopTime="0.00" timeLoss="5.06" rerouteNo="0" devices="tripinfo_dl_54" vType="Car" speedFactor="1.00" vaporized=""/>
    <tripinfo id="left_57" depart="260.00" departLane="1_0_0" departPos="4.10" departSpeed="0.00" departDelay="0.00" arrival="290.00" arrivalLane="0_W_0" arrivalPos="192.80" arrivalSpeed="15.64" duration="30.00" routeLength="395.90" waitingTime="0.00" waitingCount="0" stopTime="0.00" timeLoss="4.42" rerouteNo="0" devices="tripinfo_left_57" vType="Car" speedFactor="1.14" vaporized=""/>
    <tripinfo id="down_55" depart="258.00" departLane="N_0_0" departPos="4.10" departSpeed="0.00" departDelay="0.00" arrival="298.00" arrivalLane="0_S_0" arrivalPos="192.80" arrivalSpeed="13.49" duration="40.00" routeLength="395.90" waitingTime="2.00" waitingCount="1" stopTime="0.00" timeLoss="10.62" rerouteNo="0" devices="tripinfo_down_55" vType="Car" speedFactor="1.00" vaporized=""/>
    <tripinfo id="up_56" depart="258.00" departLane="S_0_0" departPos="4.10" departSpeed="0.00" departDelay="0.00" arrival="299.00" arrivalLane="0_N_0" arrivalPos="192.80" arrivalSpeed="12.17" duration="41.00" routeLength="395.90" waitingTime="0.00" waitingCount="0" stopTime="0.00" timeLoss="8.91" rerouteNo="0" devices="tripinfo_up_56" vType="Car" speedFactor="0.90" vaporized=""/>
    <tripinfo id="lu_58" depart="262.00" departLane="1_0_0" departPos="4.10" departSpeed="0.00" departDelay="0.00" arrival="301.00" arrivalLane="0_N_0" arrivalPos="192.80" arrivalSpeed="14.11" duration="39.00" routeLength="390.53" waitingTime="1.00" waitingCount="1" stopTime="0.00" timeLoss="10.86" rerouteNo="0" devices="tripinfo_lu_58" vType="Car" speedFactor="1.02" vaporized=""/>
    <tripinfo id="left_59" depart="266.00" departLane="1_0_0" departPos="4.10" departSpeed="0.00" departDelay="0.00" arrival="304.00" arrivalLane="0_W_0" arrivalPos="192.80" arrivalSpeed="13.42" duration="38.00" routeLength="395.90" waitingTime="0.00" waitingCount="0" stopTime="0.00" timeLoss="8.18" rerouteNo="0" devices="tripinfo_left_59" vType="Car" speedFactor="0.97" vaporized=""/>
    <tripinfo id="left_62" depart="276.00" departLane="1_0_0" departPos="4.10" departSpeed="0.00" departDelay="0.00" arrival="308.00" arrivalLane="0_W_0" arrivalPos="192.80" arrivalSpeed="13.90" duration="32.00" routeLength="395.90" waitingTime="0.00" waitingCount="0" stopTime="0.00" timeLoss="3.72" rerouteNo="0" devices="tripinfo_left_62" vType="Car" speedFactor="1.02" vaporized=""/>
    <tripinfo id="up_60" depart="270.00" departLane="S_0_0" departPos="4.10" departSpeed="0.00" departDelay="0.00" arrival="313.00" arrivalLane="0_N_0" arrivalPos="192.80" arrivalSpeed="14.17" duration="43.00" routeLength="395.90" waitingTime="7.00" waitingCount="1" stopTime="0.00" timeLoss="16.12" rerouteNo="0" devices="tripinfo_up_60" vType="Car" speedFactor="1.08" vaporized=""/>
    <tripinfo id="down_64" depart="278.00" departLane="N_0_0" departPos="4.10" departSpeed="0.00" departDelay="0.00" arrival="313.00" arrivalLane="0_S_0" arrivalPos="192.80" arrivalSpeed="12.72" duration="35.00" routeLength="395.90" waitingTime="0.00" waitingCount="0" stopTime="0.00" timeLoss="4.04" rerouteNo="0" devices="tripinfo_down_64" vType="Car" speedFactor="0.94" vaporized=""/>
    <tripinfo id="left_63" depart="278.00" departLane="1_0_0" departPos="4.10" departSpeed="0.00" departDelay="1.00" arrival="318.00" arrivalLane="0_W_0" arrivalPos="192.80" arrivalSpeed="12.80" duration="40.00" routeLength="395.90" waitingTime="1.00" waitingCount="1" stopTime="0.00" timeLoss="10.81" rerouteNo="0" devices="tripinfo_left_63" vType="Car" speedFactor="0.99" vaporized=""/>
    <tripinfo id="right_65" depart="280.00" departLane="W_0_0" departPos="4.10" departSpeed="0.00" departDelay="0.00" arrival="318.00" arrivalLane="0_1_0" arrivalPos="192.80" arrivalSpeed="11.67" duration="38.00" routeLength="395.90" waitingTime="0.00" waitingCount="0" stopTime="0.00" timeLoss="5.61" rerouteNo="0" devices="tripinfo_right_65" vType="Car" speedFactor="0.88" vaporized=""/>
    <tripinfo id="up_61" depart="275.00" departLane="S_0_0" departPos="4.10" departSpeed="0.00" departDelay="0.00" arrival="322.00" arrivalLane="0_N_0" arrivalPos="192.80" arrivalSpeed="14.92" duration="47.00" routeLength="395.90" waitingTime="6.00" waitingCount="2" stopTime="0.00" timeLoss="20.86" rerouteNo="0" devices="tripinfo_up_61" vType="Car" speedFactor="1.12" vaporized=""/>
    <tripinfo id="dl_67" depart="287.00" departLane="N_0_0" departPos="4.10" departSpeed="0.00" departDelay="0.00" arrival="325.00" arrivalLane="0_W_0" arrivalPos="192.80" arrivalSpeed="12.36" duration="38.00" routeLength="390.53" waitingTime="0.00" waitingCount="0" stopTime="0.00" timeLoss="5.48" rerouteNo="0" devices="tripinfo_dl_67" vType="Car" speedFactor="0.91" vaporized=""/>
    <tripinfo id="left_69" depart="295.00" departLane="1_0_0" departPos="4.10" departSpeed="0.00" departDelay="0.00" arrival="327.00" arrivalLane="0_W_0" arrivalPos="192.80" arrivalSpeed="13.26" duration="32.00" routeLength="395.90" waitingTime="0.00" waitingCount="0" stopTime="0.00" timeLoss="3.88" rerouteNo="0" devices="tripinfo_left_69" vType="Car" speedFactor="1.02" vaporized=""/>
    <tripinfo id="right_66" depart="286.00" departLane="W_0_0" departPos="4.10" departSpeed="0.00" departDelay="0.00" arrival="328.00" arrivalLane="0_1_0" arrivalPos="192.80" arrivalSpeed="11.73" duration="42.00" routeLength="395.90" waitingTime="2.00" waitingCount="1" stopTime="0.00" timeLoss="10.02" rerouteNo="0" devices="tripinfo_right_66" vType="Car" speedFactor="0.91" vaporized=""/>
    <tripinfo id="right_68" depart="291.00" departLane="W_0_0" departPos="4.10" departSpeed="0.00" departDelay="0.00" arrival="329.00" arrivalLane="0_1_0" arrivalPos="192.80" arrivalSpeed="14.04" duration="38.00" routeLength="395.90" waitingTime="0.00" waitingCount="0" stopTime="0.00" timeLoss="10.52" rerouteNo="0" devices="tripinfo_right_68" vType="Car" speedFactor="1.04" vaporized=""/>
    <tripinfo id="down_71" depart="307.00" departLane="N_0_0" departPos="4.10" departSpeed="0.00" departDelay="0.00" arrival="342.00" arrivalLane="0_S_0" arrivalPos="192.80" arrivalSpeed="12.80" duration="35.00" routeLength="395.90" waitingTime="0.00" waitingCount="0" stopTime="0.00" timeLoss="5.52" rerouteNo="0" devices="tripinfo_down_71" vType="Car" speedFactor="0.97" vaporized=""/>
    <tripinfo id="up_70" depart="300.00" departLane="S_0_0" departPos="4.10" departSpeed="0.00" departDelay="0.00" arrival="343.00" arrivalLane="0_N_0" arrivalPos="192.80" arrivalSpeed="13.74" duration="43.00" routeLength="395.90" waitingTime="6.00" waitingCount="1" stopTime="0.00" timeLoss="15.11" rerouteNo="0" devices="tripinfo_up_70" vType="Car" speedFactor="1.02" vaporized=""/>
    <tripinfo id="left_72" depart="308.00" departLane="1_0_0" departPos="4.10" departSpeed="0.00" departDelay="0.00" arrival="349.00" arrivalLane="0_W_0" arrivalPos="192.80" arrivalSpeed="12.48" duration="41.00" routeLength="395.90" waitingTime="0.00" waitingCount="0" stopTime="0.00" timeLoss="9.86" rerouteNo="0" devices="tripinfo_left_72" vType="Car" speedFactor="0.94" vaporized=""/>
    <tripinfo id="up_73" depart="309.00" departLane="S_0_0" departPos="4.10" departSpeed="0.00" departDelay="0.00" arrival="351.00" arrivalLane="0_N_0" arrivalPos="192.80" arrivalSpeed="13.72" duration="42.00" routeLength="395.90" waitingTime="4.00" waitingCount="1" stopTime="0.00" timeLoss="14.52" rerouteNo="0" devices="tripinfo_up_73" vType="Car" speedFactor="1.06" vaporized=""/>